 VARIABLES="X" "Y" "Z" "abs(eta) (m)" "angle(phi) (rad)" "PRE1" "PRE2"
ZONE N=   3200 ,E =    3136 ,F=FEPOINT,ET=QUADRILATERAL
  0.1530690E+02  0.0000000E+00  0.0000000E+00  0.1982058E+00  0.1882061E+01  0.6070312E-01 -0.1886814E+00
  0.1523320E+02  0.1500340E+01  0.0000000E+00  0.1995507E+00  0.1883923E+01  0.6146853E-01 -0.1898476E+00
  0.1501280E+02  0.2986230E+01  0.0000000E+00  0.2009310E+00  0.1884682E+01  0.6203875E-01 -0.1911138E+00
  0.1464780E+02  0.4443360E+01  0.0000000E+00  0.2016578E+00  0.1885158E+01  0.6235444E-01 -0.1917753E+00
  0.1414170E+02  0.5857700E+01  0.0000000E+00  0.2014983E+00  0.1885551E+01  0.6238055E-01 -0.1915991E+00
  0.1349950E+02  0.7215620E+01  0.0000000E+00  0.2005078E+00  0.1885776E+01  0.6211674E-01 -0.1906434E+00
  0.1272720E+02  0.8504060E+01  0.0000000E+00  0.1993510E+00  0.1885321E+01  0.6167220E-01 -0.1895715E+00
  0.1183240E+02  0.9710600E+01  0.0000000E+00  0.1988232E+00  0.1883842E+01  0.6122915E-01 -0.1891603E+00
  0.1082360E+02  0.1082360E+02  0.0000000E+00  0.1981598E+00  0.1882094E+01  0.6069510E-01 -0.1886356E+00
  0.9710590E+01  0.1183240E+02  0.0000000E+00  0.1958855E+00  0.1880915E+01  0.5977863E-01 -0.1865413E+00
  0.8504060E+01  0.1272720E+02  0.0000000E+00  0.1948387E+00  0.1878287E+01  0.5897153E-01 -0.1857000E+00
  0.7215620E+01  0.1349950E+02  0.0000000E+00  0.1921270E+00  0.1876985E+01  0.5791215E-01 -0.1831911E+00
  0.5857700E+01  0.1414170E+02  0.0000000E+00  0.1862430E+00  0.1878890E+01  0.5647682E-01 -0.1774734E+00
  0.4443360E+01  0.1464780E+02  0.0000000E+00  0.1780160E+00  0.1882919E+01  0.5466507E-01 -0.1694150E+00
  0.2986230E+01  0.1501280E+02  0.0000000E+00  0.1590572E+00  0.1898147E+01  0.5114248E-01 -0.1506108E+00
  0.1500340E+01  0.1523320E+02  0.0000000E+00  0.7608484E-01  0.2054849E+01  0.3540764E-01 -0.6734391E-01
 -0.6690860E-06  0.1530690E+02  0.0000000E+00  0.2464476E-01  0.2931795E+01  0.2410438E-01 -0.5132569E-02
 -0.1500340E+01  0.1523320E+02  0.0000000E+00  0.6461550E-01 -0.1779151E+01  0.1336576E-01  0.6321803E-01
 -0.2986230E+01  0.1501280E+02  0.0000000E+00  0.1741268E+00 -0.1571429E+01  0.1102240E-03  0.1741267E+00
 -0.4443360E+01  0.1464780E+02  0.0000000E+00  0.2040326E+00 -0.1547736E+01 -0.4704618E-02  0.2039784E+00
 -0.5857700E+01  0.1414170E+02  0.0000000E+00  0.2182959E+00 -0.1533513E+01 -0.8136952E-02  0.2181442E+00
 -0.7215620E+01  0.1349950E+02  0.0000000E+00  0.2282072E+00 -0.1521396E+01 -0.1126885E-01  0.2279288E+00
 -0.8504060E+01  0.1272720E+02  0.0000000E+00  0.2342341E+00 -0.1511413E+01 -0.1390150E-01  0.2338212E+00
 -0.9710590E+01  0.1183240E+02  0.0000000E+00  0.2379863E+00 -0.1502908E+01 -0.1614401E-01  0.2374381E+00
 -0.1082360E+02  0.1082360E+02  0.0000000E+00  0.2426894E+00 -0.1495000E+01 -0.1837730E-01  0.2419926E+00
 -0.1183240E+02  0.9710590E+01  0.0000000E+00  0.2452826E+00 -0.1488113E+01 -0.2025772E-01  0.2444447E+00
 -0.1272720E+02  0.8504060E+01  0.0000000E+00  0.2476728E+00 -0.1482283E+01 -0.2189363E-01  0.2467032E+00
 -0.1349950E+02  0.7215620E+01  0.0000000E+00  0.2507638E+00 -0.1477559E+01 -0.2334671E-01  0.2496746E+00
 -0.1414170E+02  0.5857690E+01  0.0000000E+00  0.2535348E+00 -0.1474063E+01 -0.2448696E-01  0.2523496E+00
 -0.1464780E+02  0.4443360E+01  0.0000000E+00  0.2553218E+00 -0.1471814E+01 -0.2523106E-01  0.2540721E+00
 -0.1501280E+02  0.2986230E+01  0.0000000E+00  0.2561194E+00 -0.1470771E+01 -0.2557565E-01  0.2548392E+00
 -0.1523320E+02  0.1500340E+01  0.0000000E+00  0.2562656E+00 -0.1470859E+01 -0.2556793E-01  0.2549869E+00
 -0.1530690E+02 -0.1338170E-05  0.0000000E+00  0.2565188E+00 -0.1472240E+01 -0.2524066E-01  0.2552740E+00
 -0.1523320E+02 -0.1500340E+01  0.0000000E+00  0.2576273E+00 -0.1475168E+01 -0.2459888E-01  0.2564502E+00
 -0.1501280E+02 -0.2986230E+01  0.0000000E+00  0.2588004E+00 -0.1479448E+01 -0.2360812E-01  0.2577214E+00
 -0.1464780E+02 -0.4443360E+01  0.0000000E+00  0.2593367E+00 -0.1484898E+01 -0.2224921E-01  0.2583805E+00
 -0.1414170E+02 -0.5857700E+01  0.0000000E+00  0.2590097E+00 -0.1491401E+01 -0.2054247E-01  0.2581937E+00
 -0.1349950E+02 -0.7215620E+01  0.0000000E+00  0.2578834E+00 -0.1498964E+01 -0.1850854E-01  0.2572183E+00
 -0.1272720E+02 -0.8504060E+01  0.0000000E+00  0.2566241E+00 -0.1507861E+01 -0.1613993E-01  0.2561161E+00
 -0.1183240E+02 -0.9710600E+01  0.0000000E+00  0.2560199E+00 -0.1518474E+01 -0.1338955E-01  0.2556696E+00
 -0.1082360E+02 -0.1082360E+02  0.0000000E+00  0.2553061E+00 -0.1530572E+01 -0.1026663E-01  0.2550996E+00
 -0.9710600E+01 -0.1183240E+02  0.0000000E+00  0.2530389E+00 -0.1543616E+01 -0.6876854E-02  0.2529455E+00
 -0.8504050E+01 -0.1272720E+02  0.0000000E+00  0.2520506E+00 -0.1558315E+01 -0.3145862E-02  0.2520309E+00
 -0.7215620E+01 -0.1349950E+02  0.0000000E+00  0.2494309E+00 -0.1574485E+01  0.9200138E-03  0.2494292E+00
 -0.5857690E+01 -0.1414170E+02  0.0000000E+00  0.2436582E+00 -0.1592764E+01  0.5352162E-02  0.2435994E+00
 -0.4443360E+01 -0.1464780E+02  0.0000000E+00  0.2355960E+00 -0.1613556E+01  0.1007083E-01  0.2353806E+00
 -0.2986230E+01 -0.1501280E+02  0.0000000E+00  0.2168325E+00 -0.1639766E+01  0.1494312E-01  0.2163170E+00
 -0.1500340E+01 -0.1523320E+02  0.0000000E+00  0.1336013E+00 -0.1698593E+01  0.1702742E-01  0.1325118E+00
  0.1825330E-06 -0.1530690E+02  0.0000000E+00  0.7288828E-01 -0.1844616E+01  0.1970977E-01  0.7017283E-01
  0.1500340E+01 -0.1523320E+02  0.0000000E+00  0.2321084E-01 -0.3058613E+01  0.2313098E-01  0.1923815E-02
  0.2986230E+01 -0.1501280E+02  0.0000000E+00  0.1121350E+00  0.1827001E+01  0.2841622E-01 -0.1084748E+00
  0.4443360E+01 -0.1464780E+02  0.0000000E+00  0.1418342E+00  0.1801409E+01  0.3241969E-01 -0.1380794E+00
  0.5857700E+01 -0.1414170E+02  0.0000000E+00  0.1562758E+00  0.1802548E+01  0.3589386E-01 -0.1520978E+00
  0.7215620E+01 -0.1349950E+02  0.0000000E+00  0.1664170E+00  0.1807475E+01  0.3902065E-01 -0.1617776E+00
  0.8504060E+01 -0.1272720E+02  0.0000000E+00  0.1727544E+00  0.1816067E+01  0.4194811E-01 -0.1675842E+00
  0.9710600E+01 -0.1183240E+02  0.0000000E+00  0.1768788E+00  0.1826414E+01  0.4472250E-01 -0.1711315E+00
  0.1082360E+02 -0.1082360E+02  0.0000000E+00  0.1818897E+00  0.1833977E+01  0.4731909E-01 -0.1756268E+00
  0.1183240E+02 -0.9710590E+01  0.0000000E+00  0.1848240E+00  0.1842784E+01  0.4965235E-01 -0.1780296E+00
  0.1272720E+02 -0.8504060E+01  0.0000000E+00  0.1875438E+00  0.1850690E+01  0.5180971E-01 -0.1802454E+00
  0.1349950E+02 -0.7215620E+01  0.0000000E+00  0.1909161E+00  0.1856486E+01  0.5380385E-01 -0.1831778E+00
  0.1414170E+02 -0.5857700E+01  0.0000000E+00  0.1939674E+00  0.1861641E+01  0.5562242E-01 -0.1858212E+00
  0.1464780E+02 -0.4443350E+01  0.0000000E+00  0.1960628E+00  0.1867077E+01  0.5724346E-01 -0.1875202E+00
  0.1501280E+02 -0.2986230E+01  0.0000000E+00  0.1971916E+00  0.1872753E+01  0.5864254E-01 -0.1882700E+00
  0.1523320E+02 -0.1500330E+01  0.0000000E+00  0.1976609E+00  0.1878055E+01  0.5978197E-01 -0.1884037E+00
  0.1530690E+02  0.0000000E+00 -0.2568960E-01  0.1980528E+00  0.1882077E+01  0.6065921E-01 -0.1885348E+00
  0.1523320E+02  0.1500340E+01 -0.2568960E-01  0.1993953E+00  0.1883937E+01  0.6142343E-01 -0.1896988E+00
  0.1501280E+02  0.2986230E+01 -0.2568960E-01  0.2007724E+00  0.1884700E+01  0.6199326E-01 -0.1909618E+00
  0.1464780E+02  0.4443360E+01 -0.2568960E-01  0.2015007E+00  0.1885173E+01  0.6230876E-01 -0.1916250E+00
  0.1414170E+02  0.5857700E+01 -0.2568960E-01  0.2013469E+00  0.1885557E+01  0.6233471E-01 -0.1914548E+00
  0.1349950E+02  0.7215620E+01 -0.2568960E-01  0.2003659E+00  0.1885775E+01  0.6207268E-01 -0.1905085E+00
  0.1272720E+02  0.8504060E+01 -0.2568960E-01  0.1992187E+00  0.1885322E+01  0.6163139E-01 -0.1894456E+00
  0.1183240E+02  0.9710600E+01 -0.2568960E-01  0.1986892E+00  0.1883835E+01  0.6118658E-01 -0.1890333E+00
  0.1082360E+02  0.1082360E+02 -0.2568960E-01  0.1980229E+00  0.1882092E+01  0.6065282E-01 -0.1885055E+00
  0.9710590E+01  0.1183240E+02 -0.2568960E-01  0.1957651E+00  0.1880908E+01  0.5974066E-01 -0.1864270E+00
  0.8504060E+01  0.1272720E+02 -0.2568960E-01  0.1947105E+00  0.1878276E+01  0.5893049E-01 -0.1855785E+00
  0.7215620E+01  0.1349950E+02 -0.2568960E-01  0.1920077E+00  0.1876971E+01  0.5787365E-01 -0.1830781E+00
  0.5857700E+01  0.1414170E+02 -0.2568960E-01  0.1861270E+00  0.1878870E+01  0.5643815E-01 -0.1773640E+00
  0.4443360E+01  0.1464780E+02 -0.2568960E-01  0.1779156E+00  0.1882893E+01  0.5462979E-01 -0.1693208E+00
  0.2986230E+01  0.1501280E+02 -0.2568960E-01  0.1589705E+00  0.1898114E+01  0.5110976E-01 -0.1505304E+00
  0.1500340E+01  0.1523320E+02 -0.2568960E-01  0.7606421E-01  0.2054713E+01  0.3538885E-01 -0.6733049E-01
 -0.6690860E-06  0.1530690E+02 -0.2568960E-01  0.2462862E-01  0.2931804E+01  0.2408864E-01 -0.5128977E-02
 -0.1500340E+01  0.1523320E+02 -0.2568960E-01  0.6460517E-01 -0.1778996E+01  0.1335379E-01  0.6321000E-01
 -0.2986230E+01  0.1501280E+02 -0.2568960E-01  0.1740181E+00 -0.1571409E+01  0.1065713E-03  0.1740181E+00
 -0.4443360E+01  0.1464780E+02 -0.2568960E-01  0.2039115E+00 -0.1547731E+01 -0.4702955E-02  0.2038572E+00
 -0.5857700E+01  0.1414170E+02 -0.2568960E-01  0.2181527E+00 -0.1533507E+01 -0.8132954E-02  0.2180011E+00
 -0.7215620E+01  0.1349950E+02 -0.2568960E-01  0.2280625E+00 -0.1521396E+01 -0.1126189E-01  0.2277842E+00
 -0.8504060E+01  0.1272720E+02 -0.2568960E-01  0.2340771E+00 -0.1511414E+01 -0.1389198E-01  0.2336645E+00
 -0.9710590E+01  0.1183240E+02 -0.2568960E-01  0.2378347E+00 -0.1502908E+01 -0.1613391E-01  0.2372868E+00
 -0.1082360E+02  0.1082360E+02 -0.2568960E-01  0.2425191E+00 -0.1494998E+01 -0.1836484E-01  0.2418227E+00
 -0.1183240E+02  0.9710590E+01 -0.2568960E-01  0.2451163E+00 -0.1488111E+01 -0.2024430E-01  0.2442788E+00
 -0.1272720E+02  0.8504060E+01 -0.2568960E-01  0.2475059E+00 -0.1482283E+01 -0.2187905E-01  0.2465370E+00
 -0.1349950E+02  0.7215620E+01 -0.2568960E-01  0.2505857E+00 -0.1477560E+01 -0.2332993E-01  0.2494974E+00
 -0.1414170E+02  0.5857690E+01 -0.2568960E-01  0.2533455E+00 -0.1474066E+01 -0.2446810E-01  0.2521611E+00
 -0.1464780E+02  0.4443360E+01 -0.2568960E-01  0.2551238E+00 -0.1471816E+01 -0.2521099E-01  0.2538751E+00
 -0.1501280E+02  0.2986230E+01 -0.2568960E-01  0.2559196E+00 -0.1470769E+01 -0.2555632E-01  0.2546404E+00
 -0.1523320E+02  0.1500340E+01 -0.2568960E-01  0.2560672E+00 -0.1470859E+01 -0.2554815E-01  0.2547895E+00
 -0.1530690E+02 -0.1338170E-05 -0.2568960E-01  0.2563225E+00 -0.1472243E+01 -0.2522068E-01  0.2550787E+00
 -0.1523320E+02 -0.1500340E+01 -0.2568960E-01  0.2574280E+00 -0.1475168E+01 -0.2457996E-01  0.2562518E+00
 -0.1501280E+02 -0.2986230E+01 -0.2568960E-01  0.2585985E+00 -0.1479448E+01 -0.2358980E-01  0.2575203E+00
 -0.1464780E+02 -0.4443360E+01 -0.2568960E-01  0.2591364E+00 -0.1484899E+01 -0.2223170E-01  0.2581810E+00
 -0.1414170E+02 -0.5857700E+01 -0.2568960E-01  0.2588161E+00 -0.1491402E+01 -0.2052707E-01  0.2580008E+00
 -0.1349950E+02 -0.7215620E+01 -0.2568960E-01  0.2576993E+00 -0.1498968E+01 -0.1849427E-01  0.2570348E+00
 -0.1272720E+02 -0.8504060E+01 -0.2568960E-01  0.2564498E+00 -0.1507865E+01 -0.1612802E-01  0.2559422E+00
 -0.1183240E+02 -0.9710600E+01 -0.2568960E-01  0.2558443E+00 -0.1518479E+01 -0.1337893E-01  0.2554942E+00
 -0.1082360E+02 -0.1082360E+02 -0.2568960E-01  0.2551269E+00 -0.1530577E+01 -0.1025838E-01  0.2549206E+00
 -0.9710600E+01 -0.1183240E+02 -0.2568960E-01  0.2528759E+00 -0.1543620E+01 -0.6871270E-02  0.2527825E+00
 -0.8504050E+01 -0.1272720E+02 -0.2568960E-01  0.2518799E+00 -0.1558322E+01 -0.3141845E-02  0.2518603E+00
 -0.7215620E+01 -0.1349950E+02 -0.2568960E-01  0.2492692E+00 -0.1574491E+01  0.9209439E-03  0.2492675E+00
 -0.5857690E+01 -0.1414170E+02 -0.2568960E-01  0.2434993E+00 -0.1592763E+01  0.5348360E-02  0.2434406E+00
 -0.4443360E+01 -0.1464780E+02 -0.2568960E-01  0.2354538E+00 -0.1613553E+01  0.1006422E-01  0.2352386E+00
 -0.2986230E+01 -0.1501280E+02 -0.2568960E-01  0.2167030E+00 -0.1639767E+01  0.1493424E-01  0.2161878E+00
 -0.1500340E+01 -0.1523320E+02 -0.2568960E-01  0.1335399E+00 -0.1698573E+01  0.1701693E-01  0.1324512E+00
  0.1825330E-06 -0.1530690E+02 -0.2568960E-01  0.7283511E-01 -0.1844641E+01  0.1969719E-01  0.7012114E-01
  0.1500340E+01 -0.1523320E+02 -0.2568960E-01  0.2319200E-01 -0.3060286E+01  0.2311539E-01  0.1883578E-02
  0.2986230E+01 -0.1501280E+02 -0.2568960E-01  0.1120715E+00  0.1826957E+01  0.2839539E-01 -0.1084146E+00
  0.4443360E+01 -0.1464780E+02 -0.2568960E-01  0.1417582E+00  0.1801381E+01  0.3239834E-01 -0.1380063E+00
  0.5857700E+01 -0.1414170E+02 -0.2568960E-01  0.1561776E+00  0.1802523E+01  0.3586745E-01 -0.1520032E+00
  0.7215620E+01 -0.1349950E+02 -0.2568960E-01  0.1663166E+00  0.1807456E+01  0.3899395E-01 -0.1616808E+00
  0.8504060E+01 -0.1272720E+02 -0.2568960E-01  0.1726420E+00  0.1816055E+01  0.4191865E-01 -0.1674756E+00
  0.9710600E+01 -0.1183240E+02 -0.2568960E-01  0.1767711E+00  0.1826392E+01  0.4469154E-01 -0.1710284E+00
  0.1082360E+02 -0.1082360E+02 -0.2568960E-01  0.1817631E+00  0.1833968E+01  0.4728456E-01 -0.1755049E+00
  0.1183240E+02 -0.9710590E+01 -0.2568960E-01  0.1847017E+00  0.1842770E+01  0.4961699E-01 -0.1779125E+00
  0.1272720E+02 -0.8504060E+01 -0.2568960E-01  0.1874202E+00  0.1850676E+01  0.5177291E-01 -0.1801275E+00
  0.1349950E+02 -0.7215620E+01 -0.2568960E-01  0.1907823E+00  0.1856482E+01  0.5376532E-01 -0.1830496E+00
  0.1414170E+02 -0.5857700E+01 -0.2568960E-01  0.1938211E+00  0.1861650E+01  0.5558215E-01 -0.1856805E+00
  0.1464780E+02 -0.4443350E+01 -0.2568960E-01  0.1959089E+00  0.1867095E+01  0.5720192E-01 -0.1873719E+00
  0.1501280E+02 -0.2986230E+01 -0.2568960E-01  0.1970350E+00  0.1872771E+01  0.5859932E-01 -0.1881194E+00
  0.1523320E+02 -0.1500330E+01 -0.2568960E-01  0.1975070E+00  0.1878078E+01  0.5973979E-01 -0.1882556E+00
  0.1530690E+02  0.0000000E+00 -0.1027320E+00  0.1976082E+00  0.1882106E+01  0.6052853E-01 -0.1881099E+00
  0.1523320E+02  0.1500340E+01 -0.1027320E+00  0.1989417E+00  0.1883973E+01  0.6129051E-01 -0.1892650E+00
  0.1501280E+02  0.2986230E+01 -0.1027320E+00  0.2003099E+00  0.1884739E+01  0.6185788E-01 -0.1905194E+00
  0.1464780E+02  0.4443360E+01 -0.1027320E+00  0.2010419E+00  0.1885210E+01  0.6217409E-01 -0.1911864E+00
  0.1414170E+02  0.5857700E+01 -0.1027320E+00  0.2009066E+00  0.1885572E+01  0.6220129E-01 -0.1910353E+00
  0.1349950E+02  0.7215620E+01 -0.1027320E+00  0.1999570E+00  0.1885763E+01  0.6194359E-01 -0.1901205E+00
  0.1272720E+02  0.8504060E+01 -0.1027320E+00  0.1988313E+00  0.1885292E+01  0.6150594E-01 -0.1890791E+00
  0.1183240E+02  0.9710600E+01 -0.1027320E+00  0.1982995E+00  0.1883808E+01  0.6106144E-01 -0.1886642E+00
  0.1082360E+02  0.1082360E+02 -0.1027320E+00  0.1976195E+00  0.1882074E+01  0.6052586E-01 -0.1881225E+00
  0.9710590E+01  0.1183240E+02 -0.1027320E+00  0.1954072E+00  0.1880848E+01  0.5962035E-01 -0.1860897E+00
  0.8504060E+01  0.1272720E+02 -0.1027320E+00  0.1943313E+00  0.1878248E+01  0.5881073E-01 -0.1852187E+00
  0.7215620E+01  0.1349950E+02 -0.1027320E+00  0.1916346E+00  0.1876949E+01  0.5775712E-01 -0.1827236E+00
  0.5857700E+01  0.1414170E+02 -0.1027320E+00  0.1857871E+00  0.1878808E+01  0.5632400E-01 -0.1770437E+00
  0.4443360E+01  0.1464780E+02 -0.1027320E+00  0.1776156E+00  0.1882828E+01  0.5452666E-01 -0.1690389E+00
  0.2986230E+01  0.1501280E+02 -0.1027320E+00  0.1586899E+00  0.1898031E+01  0.5100702E-01 -0.1502690E+00
  0.1500340E+01  0.1523320E+02 -0.1027320E+00  0.7599339E-01  0.2054330E+01  0.3533015E-01 -0.6728132E-01
 -0.6690860E-06  0.1530690E+02 -0.1027320E+00  0.2457969E-01  0.2931647E+01  0.2403997E-01 -0.5122580E-02
 -0.1500340E+01  0.1523320E+02 -0.1027320E+00  0.6457630E-01 -0.1778511E+01  0.1331720E-01  0.6318822E-01
 -0.2986230E+01  0.1501280E+02 -0.1027320E+00  0.1736740E+00 -0.1571387E+01  0.1025224E-03  0.1736740E+00
 -0.4443360E+01  0.1464780E+02 -0.1027320E+00  0.2035486E+00 -0.1547699E+01 -0.4701028E-02  0.2034943E+00
 -0.5857700E+01  0.1414170E+02 -0.1027320E+00  0.2177316E+00 -0.1533492E+01 -0.8120399E-02  0.2175801E+00
 -0.7215620E+01  0.1349950E+02 -0.1027320E+00  0.2276115E+00 -0.1521397E+01 -0.1123940E-01  0.2273338E+00
 -0.8504060E+01  0.1272720E+02 -0.1027320E+00  0.2336105E+00 -0.1511411E+01 -0.1386497E-01  0.2331987E+00
 -0.9710590E+01  0.1183240E+02 -0.1027320E+00  0.2373872E+00 -0.1502894E+01 -0.1610666E-01  0.2368401E+00
 -0.1082360E+02  0.1082360E+02 -0.1027320E+00  0.2420146E+00 -0.1494997E+01 -0.1832696E-01  0.2413197E+00
 -0.1183240E+02  0.9710590E+01 -0.1027320E+00  0.2446263E+00 -0.1488115E+01 -0.2020302E-01  0.2437906E+00
 -0.1272720E+02  0.8504060E+01 -0.1027320E+00  0.2470165E+00 -0.1482288E+01 -0.2183449E-01  0.2460496E+00
 -0.1349950E+02  0.7215620E+01 -0.1027320E+00  0.2500657E+00 -0.1477571E+01 -0.2327858E-01  0.2489799E+00
 -0.1414170E+02  0.5857690E+01 -0.1027320E+00  0.2527893E+00 -0.1474075E+01 -0.2441207E-01  0.2516077E+00
 -0.1464780E+02  0.4443360E+01 -0.1027320E+00  0.2545455E+00 -0.1471824E+01 -0.2515189E-01  0.2532998E+00
 -0.1501280E+02  0.2986230E+01 -0.1027320E+00  0.2553351E+00 -0.1470774E+01 -0.2549665E-01  0.2540589E+00
 -0.1523320E+02  0.1500340E+01 -0.1027320E+00  0.2554899E+00 -0.1470861E+01 -0.2548999E-01  0.2542151E+00
 -0.1530690E+02 -0.1338170E-05 -0.1027320E+00  0.2557499E+00 -0.1472242E+01 -0.2516442E-01  0.2545089E+00
 -0.1523320E+02 -0.1500340E+01 -0.1027320E+00  0.2568472E+00 -0.1475170E+01 -0.2452393E-01  0.2556737E+00
 -0.1501280E+02 -0.2986230E+01 -0.1027320E+00  0.2580082E+00 -0.1479443E+01 -0.2353705E-01  0.2569323E+00
 -0.1464780E+02 -0.4443360E+01 -0.1027320E+00  0.2585506E+00 -0.1484894E+01 -0.2218276E-01  0.2575973E+00
 -0.1414170E+02 -0.5857700E+01 -0.1027320E+00  0.2582490E+00 -0.1491403E+01 -0.2048164E-01  0.2574355E+00
 -0.1349950E+02 -0.7215620E+01 -0.1027320E+00  0.2571634E+00 -0.1498979E+01 -0.1845296E-01  0.2565005E+00
 -0.1272720E+02 -0.8504060E+01 -0.1027320E+00  0.2559366E+00 -0.1507885E+01 -0.1609081E-01  0.2554303E+00
 -0.1183240E+02 -0.9710600E+01 -0.1027320E+00  0.2553284E+00 -0.1518495E+01 -0.1334795E-01  0.2549793E+00
 -0.1082360E+02 -0.1082360E+02 -0.1027320E+00  0.2545981E+00 -0.1530579E+01 -0.1023649E-01  0.2543923E+00
 -0.9710600E+01 -0.1183240E+02 -0.1027320E+00  0.2523937E+00 -0.1543632E+01 -0.6855258E-02  0.2523006E+00
 -0.8504050E+01 -0.1272720E+02 -0.1027320E+00  0.2513755E+00 -0.1558331E+01 -0.3133396E-02  0.2513560E+00
 -0.7215620E+01 -0.1349950E+02 -0.1027320E+00  0.2487711E+00 -0.1574500E+01  0.9213248E-03  0.2487694E+00
 -0.5857690E+01 -0.1414170E+02 -0.1027320E+00  0.2430345E+00 -0.1592764E+01  0.5338454E-02  0.2429759E+00
 -0.4443360E+01 -0.1464780E+02 -0.1027320E+00  0.2350280E+00 -0.1613552E+01  0.1004576E-01  0.2348132E+00
 -0.2986230E+01 -0.1501280E+02 -0.1027320E+00  0.2162965E+00 -0.1639755E+01  0.1490361E-01  0.2157824E+00
 -0.1500340E+01 -0.1523320E+02 -0.1027320E+00  0.1333461E+00 -0.1698517E+01  0.1698477E-01  0.1322599E+00
  0.1825330E-06 -0.1530690E+02 -0.1027320E+00  0.7268158E-01 -0.1844682E+01  0.1965853E-01  0.6997253E-01
  0.1500340E+01 -0.1523320E+02 -0.1027320E+00  0.2313834E-01 -0.3065223E+01  0.2307090E-01  0.1765362E-02
  0.2986230E+01 -0.1501280E+02 -0.1027320E+00  0.1118623E+00  0.1826893E+01  0.2833544E-01 -0.1082141E+00
  0.4443360E+01 -0.1464780E+02 -0.1027320E+00  0.1415309E+00  0.1801264E+01  0.3233028E-01 -0.1377888E+00
  0.5857700E+01 -0.1414170E+02 -0.1027320E+00  0.1558908E+00  0.1802463E+01  0.3579253E-01 -0.1517262E+00
  0.7215620E+01 -0.1349950E+02 -0.1027320E+00  0.1660006E+00  0.1807406E+01  0.3891193E-01 -0.1613756E+00
  0.8504060E+01 -0.1272720E+02 -0.1027320E+00  0.1723091E+00  0.1816019E+01  0.4183183E-01 -0.1671542E+00
  0.9710600E+01 -0.1183240E+02 -0.1027320E+00  0.1764546E+00  0.1826306E+01  0.4459693E-01 -0.1707260E+00
  0.1082360E+02 -0.1082360E+02 -0.1027320E+00  0.1813906E+00  0.1833948E+01  0.4718429E-01 -0.1751462E+00
  0.1183240E+02 -0.9710590E+01 -0.1027320E+00  0.1843433E+00  0.1842725E+01  0.4951278E-01 -0.1775695E+00
  0.1272720E+02 -0.8504060E+01 -0.1027320E+00  0.1870620E+00  0.1850622E+01  0.5166437E-01 -0.1797860E+00
  0.1349950E+02 -0.7215620E+01 -0.1027320E+00  0.1903923E+00  0.1856467E+01  0.5365266E-01 -0.1826762E+00
  0.1414170E+02 -0.5857700E+01 -0.1027320E+00  0.1933968E+00  0.1861673E+01  0.5546468E-01 -0.1852728E+00
  0.1464780E+02 -0.4443350E+01 -0.1027320E+00  0.1954620E+00  0.1867142E+01  0.5708017E-01 -0.1869418E+00
  0.1501280E+02 -0.2986230E+01 -0.1027320E+00  0.1965809E+00  0.1872820E+01  0.5847358E-01 -0.1876830E+00
  0.1523320E+02 -0.1500330E+01 -0.1027320E+00  0.1970590E+00  0.1878114E+01  0.5961092E-01 -0.1878265E+00
  0.1530690E+02  0.0000000E+00 -0.2310450E+00  0.1968675E+00  0.1882164E+01  0.6031260E-01 -0.1874012E+00
  0.1523320E+02  0.1500340E+01 -0.2310450E+00  0.1981864E+00  0.1884045E+01  0.6107139E-01 -0.1885421E+00
  0.1501280E+02  0.2986230E+01 -0.2310450E+00  0.1995391E+00  0.1884807E+01  0.6163273E-01 -0.1897821E+00
  0.1464780E+02  0.4443360E+01 -0.2310450E+00  0.2002758E+00  0.1885265E+01  0.6194759E-01 -0.1904545E+00
  0.1414170E+02  0.5857700E+01 -0.2310450E+00  0.2001718E+00  0.1885597E+01  0.6197850E-01 -0.1903350E+00
  0.1349950E+02  0.7215620E+01 -0.2310450E+00  0.1992700E+00  0.1885756E+01  0.6172956E-01 -0.1894676E+00
  0.1272720E+02  0.8504060E+01 -0.2310450E+00  0.1981840E+00  0.1885251E+01  0.6129793E-01 -0.1884661E+00
  0.1183240E+02  0.9710600E+01 -0.2310450E+00  0.1976448E+00  0.1883767E+01  0.6085216E-01 -0.1880438E+00
  0.1082360E+02  0.1082360E+02 -0.2310450E+00  0.1969415E+00  0.1882052E+01  0.6031413E-01 -0.1874784E+00
  0.9710590E+01  0.1183240E+02 -0.2310450E+00  0.1948097E+00  0.1880761E+01  0.5942181E-01 -0.1855259E+00
  0.8504060E+01  0.1272720E+02 -0.2310450E+00  0.1936971E+00  0.1878209E+01  0.5861154E-01 -0.1846165E+00
  0.7215620E+01  0.1349950E+02 -0.2310450E+00  0.1910111E+00  0.1876909E+01  0.5756206E-01 -0.1821314E+00
  0.5857700E+01  0.1414170E+02 -0.2310450E+00  0.1852207E+00  0.1878718E+01  0.5613653E-01 -0.1765089E+00
  0.4443360E+01  0.1464780E+02 -0.2310450E+00  0.1771042E+00  0.1882722E+01  0.5435182E-01 -0.1685580E+00
  0.2986230E+01  0.1501280E+02 -0.2310450E+00  0.1582457E+00  0.1897884E+01  0.5084214E-01 -0.1498559E+00
  0.1500340E+01  0.1523320E+02 -0.2310450E+00  0.7580765E-01  0.2053965E+01  0.3521928E-01 -0.6712973E-01
 -0.6690860E-06  0.1530690E+02 -0.2310450E+00  0.2449915E-01  0.2931539E+01  0.2396065E-01 -0.5108373E-02
 -0.1500340E+01  0.1523320E+02 -0.2310450E+00  0.6440850E-01 -0.1778229E+01  0.1326484E-01  0.6302776E-01
 -0.2986230E+01  0.1501280E+02 -0.2310450E+00  0.1731368E+00 -0.1571321E+01  0.9075093E-04  0.1731367E+00
 -0.4443360E+01  0.1464780E+02 -0.2310450E+00  0.2029299E+00 -0.1547665E+01 -0.4693671E-02  0.2028757E+00
 -0.5857700E+01  0.1414170E+02 -0.2310450E+00  0.2170309E+00 -0.1533462E+01 -0.8100845E-02  0.2168797E+00
 -0.7215620E+01  0.1349950E+02 -0.2310450E+00  0.2268588E+00 -0.1521386E+01 -0.1120454E-01  0.2265819E+00
 -0.8504060E+01  0.1272720E+02 -0.2310450E+00  0.2328312E+00 -0.1511415E+01 -0.1381765E-01  0.2324208E+00
 -0.9710590E+01  0.1183240E+02 -0.2310450E+00  0.2366379E+00 -0.1502890E+01 -0.1605699E-01  0.2360925E+00
 -0.1082360E+02  0.1082360E+02 -0.2310450E+00  0.2411715E+00 -0.1495001E+01 -0.1826220E-01  0.2404791E+00
 -0.1183240E+02  0.9710590E+01 -0.2310450E+00  0.2438060E+00 -0.1488120E+01 -0.2013392E-01  0.2429733E+00
 -0.1272720E+02  0.8504060E+01 -0.2310450E+00  0.2461990E+00 -0.1482299E+01 -0.2175945E-01  0.2452355E+00
 -0.1349950E+02  0.7215620E+01 -0.2310450E+00  0.2491972E+00 -0.1477581E+01 -0.2319539E-01  0.2481153E+00
 -0.1414170E+02  0.5857690E+01 -0.2310450E+00  0.2518615E+00 -0.1474088E+01 -0.2431912E-01  0.2506847E+00
 -0.1464780E+02  0.4443360E+01 -0.2310450E+00  0.2535814E+00 -0.1471836E+01 -0.2505357E-01  0.2523407E+00
 -0.1501280E+02  0.2986230E+01 -0.2310450E+00  0.2543614E+00 -0.1470784E+01 -0.2539697E-01  0.2530903E+00
 -0.1523320E+02  0.1500340E+01 -0.2310450E+00  0.2545268E+00 -0.1470872E+01 -0.2539119E-01  0.2532571E+00
 -0.1530690E+02 -0.1338170E-05 -0.2310450E+00  0.2547960E+00 -0.1472247E+01 -0.2506930E-01  0.2535597E+00
 -0.1523320E+02 -0.1500340E+01 -0.2310450E+00  0.2558791E+00 -0.1475170E+01 -0.2443162E-01  0.2547100E+00
 -0.1501280E+02 -0.2986230E+01 -0.2310450E+00  0.2570256E+00 -0.1479444E+01 -0.2344716E-01  0.2559538E+00
 -0.1464780E+02 -0.4443360E+01 -0.2310450E+00  0.2575743E+00 -0.1484892E+01 -0.2209965E-01  0.2566245E+00
 -0.1414170E+02 -0.5857700E+01 -0.2310450E+00  0.2573041E+00 -0.1491410E+01 -0.2040506E-01  0.2564937E+00
 -0.1349950E+02 -0.7215620E+01 -0.2310450E+00  0.2562676E+00 -0.1498997E+01 -0.1838407E-01  0.2556073E+00
 -0.1272720E+02 -0.8504060E+01 -0.2310450E+00  0.2550813E+00 -0.1507912E+01 -0.1602993E-01  0.2545771E+00
 -0.1183240E+02 -0.9710600E+01 -0.2310450E+00  0.2544667E+00 -0.1518517E+01 -0.1329734E-01  0.2541190E+00
 -0.1082360E+02 -0.1082360E+02 -0.2310450E+00  0.2537137E+00 -0.1530584E+01 -0.1019954E-01  0.2535086E+00
 -0.9710600E+01 -0.1183240E+02 -0.2310450E+00  0.2515881E+00 -0.1543652E+01 -0.6828340E-02  0.2514954E+00
 -0.8504050E+01 -0.1272720E+02 -0.2310450E+00  0.2505332E+00 -0.1558346E+01 -0.3119035E-02  0.2505138E+00
 -0.7215620E+01 -0.1349950E+02 -0.2310450E+00  0.2479386E+00 -0.1574518E+01  0.9228257E-03  0.2479368E+00
 -0.5857690E+01 -0.1414170E+02 -0.2310450E+00  0.2422600E+00 -0.1592761E+01  0.5320743E-02  0.2422015E+00
 -0.4443360E+01 -0.1464780E+02 -0.2310450E+00  0.2343072E+00 -0.1613554E+01  0.1001534E-01  0.2340931E+00
 -0.2986230E+01 -0.1501280E+02 -0.2310450E+00  0.2156433E+00 -0.1639736E+01  0.1485457E-01  0.2151311E+00
 -0.1500340E+01 -0.1523320E+02 -0.2310450E+00  0.1329535E+00 -0.1698468E+01  0.1692831E-01  0.1318713E+00
  0.1825330E-06 -0.1530690E+02 -0.2310450E+00  0.7242399E-01 -0.1844763E+01  0.1959447E-01  0.6972297E-01
  0.1500340E+01 -0.1523320E+02 -0.2310450E+00  0.2305634E-01 -0.3068294E+01  0.2299443E-01  0.1688492E-02
  0.2986230E+01 -0.1501280E+02 -0.2310450E+00  0.1115476E+00  0.1826714E+01  0.2823644E-01 -0.1079147E+00
  0.4443360E+01 -0.1464780E+02 -0.2310450E+00  0.1411353E+00  0.1801113E+01  0.3221914E-01 -0.1374085E+00
  0.5857700E+01 -0.1414170E+02 -0.2310450E+00  0.1554131E+00  0.1802352E+01  0.3566606E-01 -0.1512652E+00
  0.7215620E+01 -0.1349950E+02 -0.2310450E+00  0.1654706E+00  0.1807340E+01  0.3877698E-01 -0.1608628E+00
  0.8504060E+01 -0.1272720E+02 -0.2310450E+00  0.1717510E+00  0.1815960E+01  0.4168655E-01 -0.1666153E+00
  0.9710600E+01 -0.1183240E+02 -0.2310450E+00  0.1759241E+00  0.1826187E+01  0.4444255E-01 -0.1702179E+00
  0.1082360E+02 -0.1082360E+02 -0.2310450E+00  0.1807688E+00  0.1833927E+01  0.4701879E-01 -0.1745468E+00
  0.1183240E+02 -0.9710590E+01 -0.2310450E+00  0.1837401E+00  0.1842659E+01  0.4933901E-01 -0.1769917E+00
  0.1272720E+02 -0.8504060E+01 -0.2310450E+00  0.1864602E+00  0.1850547E+01  0.5148461E-01 -0.1792114E+00
  0.1349950E+02 -0.7215620E+01 -0.2310450E+00  0.1897414E+00  0.1856444E+01  0.5346505E-01 -0.1820530E+00
  0.1414170E+02 -0.5857700E+01 -0.2310450E+00  0.1926872E+00  0.1861724E+01  0.5527052E-01 -0.1845902E+00
  0.1464780E+02 -0.4443350E+01 -0.2310450E+00  0.1947153E+00  0.1867221E+01  0.5687678E-01 -0.1862232E+00
  0.1501280E+02 -0.2986230E+01 -0.2310450E+00  0.1958247E+00  0.1872909E+01  0.5826522E-01 -0.1869558E+00
  0.1523320E+02 -0.1500330E+01 -0.2310450E+00  0.1963112E+00  0.1878191E+01  0.5939907E-01 -0.1871092E+00
  0.1530690E+02  0.0000000E+00 -0.4105000E+00  0.1958479E+00  0.1882232E+01  0.6001272E-01 -0.1864266E+00
  0.1523320E+02  0.1500340E+01 -0.4105000E+00  0.1971457E+00  0.1884116E+01  0.6076385E-01 -0.1875478E+00
  0.1501280E+02  0.2986230E+01 -0.4105000E+00  0.1984770E+00  0.1884896E+01  0.6132146E-01 -0.1887665E+00
  0.1464780E+02  0.4443360E+01 -0.4105000E+00  0.1992221E+00  0.1885333E+01  0.6163459E-01 -0.1894483E+00
  0.1414170E+02  0.5857700E+01 -0.4105000E+00  0.1991597E+00  0.1885616E+01  0.6166888E-01 -0.1893714E+00
  0.1349950E+02  0.7215620E+01 -0.4105000E+00  0.1983270E+00  0.1885715E+01  0.6142954E-01 -0.1885736E+00
  0.1272720E+02  0.8504060E+01 -0.4105000E+00  0.1972952E+00  0.1885171E+01  0.6100807E-01 -0.1876258E+00
  0.1183240E+02  0.9710600E+01 -0.4105000E+00  0.1967468E+00  0.1883700E+01  0.6056320E-01 -0.1871935E+00
  0.1082360E+02  0.1082360E+02 -0.4105000E+00  0.1960078E+00  0.1881999E+01  0.6001842E-01 -0.1865928E+00
  0.9710590E+01  0.1183240E+02 -0.4105000E+00  0.1939825E+00  0.1880651E+01  0.5914930E-01 -0.1847446E+00
  0.8504060E+01  0.1272720E+02 -0.4105000E+00  0.1928121E+00  0.1878153E+01  0.5833336E-01 -0.1837763E+00
  0.7215620E+01  0.1349950E+02 -0.4105000E+00  0.1901122E+00  0.1876879E+01  0.5728569E-01 -0.1812760E+00
  0.5857700E+01  0.1414170E+02 -0.4105000E+00  0.1843965E+00  0.1878626E+01  0.5587044E-01 -0.1757286E+00
  0.4443360E+01  0.1464780E+02 -0.4105000E+00  0.1763134E+00  0.1882643E+01  0.5409598E-01 -0.1678095E+00
  0.2986230E+01  0.1501280E+02 -0.4105000E+00  0.1575475E+00  0.1897790E+01  0.5060388E-01 -0.1491994E+00
  0.1500340E+01  0.1523320E+02 -0.4105000E+00  0.7545647E-01  0.2053899E+01  0.3505171E-01 -0.6682108E-01
 -0.6690860E-06  0.1530690E+02 -0.4105000E+00  0.2438282E-01  0.2932010E+01  0.2384927E-01 -0.5072884E-02
 -0.1500340E+01  0.1523320E+02 -0.4105000E+00  0.6410162E-01 -0.1778256E+01  0.1320334E-01  0.6272710E-01
 -0.2986230E+01  0.1501280E+02 -0.4105000E+00  0.1723310E+00 -0.1571295E+01  0.8600517E-04  0.1723310E+00
 -0.4443360E+01  0.1464780E+02 -0.4105000E+00  0.2019893E+00 -0.1547652E+01 -0.4674425E-02  0.2019352E+00
 -0.5857700E+01  0.1414170E+02 -0.4105000E+00  0.2160190E+00 -0.1533440E+01 -0.8067686E-02  0.2158682E+00
 -0.7215620E+01  0.1349950E+02 -0.4105000E+00  0.2257757E+00 -0.1521403E+01 -0.1114738E-01  0.2255003E+00
 -0.8504060E+01  0.1272720E+02 -0.4105000E+00  0.2317432E+00 -0.1511423E+01 -0.1375123E-01  0.2313348E+00
 -0.9710590E+01  0.1183240E+02 -0.4105000E+00  0.2355980E+00 -0.1502878E+01 -0.1598907E-01  0.2350548E+00
 -0.1082360E+02  0.1082360E+02 -0.4105000E+00  0.2400044E+00 -0.1495004E+01 -0.1817312E-01  0.2393153E+00