 VARIABLES="X" "Y" "Z" "abs(eta) (m)" "angle(phi) (rad)" "PRE1" "PRE2"
ZONE N=   3200 ,E =    3136 ,F=FEPOINT,ET=QUADRILATERAL
  0.1530690E+02  0.0000000E+00  0.0000000E+00  0.8295208E+00 -0.6498979E+00 -0.6604193E+00  0.5019473E+00
  0.1523320E+02  0.1500340E+01  0.0000000E+00  0.8294011E+00 -0.6490126E+00 -0.6607681E+00  0.5012901E+00
  0.1501280E+02  0.2986230E+01  0.0000000E+00  0.8267137E+00 -0.6521190E+00 -0.6570717E+00  0.5017093E+00
  0.1464780E+02  0.4443360E+01  0.0000000E+00  0.8211516E+00 -0.6586298E+00 -0.6493926E+00  0.5025725E+00
  0.1414170E+02  0.5857700E+01  0.0000000E+00  0.8135135E+00 -0.6689882E+00 -0.6381603E+00  0.5045350E+00
  0.1349950E+02  0.7215620E+01  0.0000000E+00  0.8050212E+00 -0.6840457E+00 -0.6239095E+00  0.5087200E+00
  0.1272720E+02  0.8504060E+01  0.0000000E+00  0.7974379E+00 -0.7046055E+00 -0.6075417E+00  0.5165271E+00
  0.1183240E+02  0.9710600E+01  0.0000000E+00  0.7847970E+00 -0.7276205E+00 -0.5860543E+00  0.5219643E+00
  0.1082360E+02  0.1082360E+02  0.0000000E+00  0.7637897E+00 -0.7518965E+00 -0.5578681E+00  0.5216876E+00
  0.9710590E+01  0.1183240E+02  0.0000000E+00  0.7429218E+00 -0.7811626E+00 -0.5275454E+00  0.5230953E+00
  0.8504060E+01  0.1272720E+02  0.0000000E+00  0.7165999E+00 -0.8135560E+00 -0.4922458E+00  0.5207778E+00
  0.7215620E+01  0.1349950E+02  0.0000000E+00  0.6793063E+00 -0.8479717E+00 -0.4493650E+00  0.5094391E+00
  0.5857700E+01  0.1414170E+02  0.0000000E+00  0.6403573E+00 -0.8869495E+00 -0.4045646E+00  0.4963718E+00
  0.4443360E+01  0.1464780E+02  0.0000000E+00  0.5848137E+00 -0.9293506E+00 -0.3499259E+00  0.4685711E+00
  0.2986230E+01  0.1501280E+02  0.0000000E+00  0.4912979E+00 -0.9727472E+00 -0.2766161E+00  0.4060261E+00
  0.1500340E+01  0.1523320E+02  0.0000000E+00  0.1971057E+00 -0.1021409E+01 -0.1029216E+00  0.1681006E+00
 -0.6690860E-06  0.1530690E+02  0.0000000E+00  0.3998124E-01 -0.2377706E+01  0.2887257E-01  0.2765636E-01
 -0.1500340E+01  0.1523320E+02  0.0000000E+00  0.1902483E+00  0.2594696E+01  0.1624991E+00 -0.9893648E-01
 -0.2986230E+01  0.1501280E+02  0.0000000E+00  0.4398042E+00  0.2472285E+01  0.3449170E+00 -0.2728736E+00
 -0.4443360E+01  0.1464780E+02  0.0000000E+00  0.5163809E+00  0.2494433E+01  0.4119685E+00 -0.3113378E+00
 -0.5857700E+01  0.1414170E+02  0.0000000E+00  0.5631475E+00  0.2522855E+01  0.4587462E+00 -0.3266299E+00
 -0.7215620E+01  0.1349950E+02  0.0000000E+00  0.5959139E+00  0.2553652E+01  0.4958507E+00 -0.3305231E+00
 -0.8504060E+01  0.1272720E+02  0.0000000E+00  0.6279632E+00  0.2578423E+01  0.5309850E+00 -0.3352503E+00
 -0.9710590E+01  0.1183240E+02  0.0000000E+00  0.6500608E+00  0.2604679E+01  0.5585915E+00 -0.3324973E+00
 -0.1082360E+02  0.1082360E+02  0.0000000E+00  0.6672758E+00  0.2629750E+01  0.5817599E+00 -0.3268217E+00
 -0.1183240E+02  0.9710590E+01  0.0000000E+00  0.6845855E+00  0.2650499E+01  0.6036797E+00 -0.3228439E+00
 -0.1272720E+02  0.8504060E+01  0.0000000E+00  0.6943406E+00  0.2671795E+01  0.6191156E+00 -0.3143322E+00
 -0.1349950E+02  0.7215620E+01  0.0000000E+00  0.6991386E+00  0.2691387E+01  0.6294748E+00 -0.3042308E+00
 -0.1414170E+02  0.5857690E+01  0.0000000E+00  0.7043387E+00  0.2704758E+01  0.6381981E+00 -0.2979868E+00
 -0.1464780E+02  0.4443360E+01  0.0000000E+00  0.7084808E+00  0.2713923E+01  0.6446712E+00 -0.2938437E+00
 -0.1501280E+02  0.2986230E+01  0.0000000E+00  0.7105497E+00  0.2719607E+01  0.6482185E+00 -0.2910217E+00
 -0.1523320E+02  0.1500340E+01  0.0000000E+00  0.7098002E+00  0.2722398E+01  0.6483437E+00 -0.2889062E+00
 -0.1530690E+02 -0.1338170E-05  0.0000000E+00  0.7064462E+00  0.2721590E+01  0.6450473E+00 -0.2880628E+00
 -0.1523320E+02 -0.1500340E+01  0.0000000E+00  0.7003945E+00  0.2717331E+01  0.6382996E+00 -0.2883159E+00
 -0.1501280E+02 -0.2986230E+01  0.0000000E+00  0.6918781E+00  0.2709547E+01  0.6283022E+00 -0.2897095E+00
 -0.1464780E+02 -0.4443360E+01  0.0000000E+00  0.6806455E+00  0.2698899E+01  0.6150321E+00 -0.2915713E+00
 -0.1414170E+02 -0.5857700E+01  0.0000000E+00  0.6673565E+00  0.2684479E+01  0.5988390E+00 -0.2945446E+00
 -0.1349950E+02 -0.7215620E+01  0.0000000E+00  0.6528903E+00  0.2664718E+01  0.5800499E+00 -0.2996796E+00
 -0.1272720E+02 -0.8504060E+01  0.0000000E+00  0.6384796E+00  0.2637594E+01  0.5590900E+00 -0.3083417E+00
 -0.1183240E+02 -0.9710600E+01  0.0000000E+00  0.6194113E+00  0.2608912E+01  0.5335913E+00 -0.3145643E+00
 -0.1082360E+02 -0.1082360E+02  0.0000000E+00  0.5936955E+00  0.2581968E+01  0.5031297E+00 -0.3151743E+00
 -0.9710600E+01 -0.1183240E+02  0.0000000E+00  0.5678250E+00  0.2548339E+01  0.4707984E+00 -0.3174494E+00
 -0.8504050E+01 -0.1272720E+02  0.0000000E+00  0.5373797E+00  0.2512822E+01  0.4346064E+00 -0.3160605E+00
 -0.7215620E+01 -0.1349950E+02  0.0000000E+00  0.4975799E+00  0.2479867E+01  0.3925571E+00 -0.3057526E+00
 -0.5857690E+01 -0.1414170E+02  0.0000000E+00  0.4551929E+00  0.2439545E+01  0.3475496E+00 -0.2939556E+00
 -0.4443360E+01 -0.1464780E+02  0.0000000E+00  0.3985175E+00  0.2404588E+01  0.2950963E+00 -0.2678328E+00
 -0.2986230E+01 -0.1501280E+02  0.0000000E+00  0.3085288E+00  0.2400509E+01  0.2276132E+00 -0.2082840E+00
 -0.1500340E+01 -0.1523320E+02  0.0000000E+00  0.9721339E-01 -0.2896813E+01  0.9431552E-01  0.2355898E-01
  0.1825330E-06 -0.1530690E+02  0.0000000E+00  0.1637465E+00 -0.1556282E+01 -0.2376637E-02  0.1637292E+00
  0.1500340E+01 -0.1523320E+02  0.0000000E+00  0.3086738E+00 -0.1254061E+01 -0.9614127E-01  0.2933196E+00
  0.2986230E+01 -0.1501280E+02  0.0000000E+00  0.5231808E+00 -0.1145005E+01 -0.2160956E+00  0.4764671E+00
  0.4443360E+01 -0.1464780E+02  0.0000000E+00  0.5934083E+00 -0.1065897E+01 -0.2870433E+00  0.5193647E+00
  0.5857700E+01 -0.1414170E+02  0.0000000E+00  0.6385137E+00 -0.1000395E+01 -0.3447780E+00  0.5374271E+00
  0.7215620E+01 -0.1349950E+02  0.0000000E+00  0.6715938E+00 -0.9426794E+00 -0.3946434E+00  0.5434104E+00
  0.8504060E+01 -0.1272720E+02  0.0000000E+00  0.7049111E+00 -0.8943209E+00 -0.4413085E+00  0.5496784E+00
  0.9710600E+01 -0.1183240E+02  0.0000000E+00  0.7296907E+00 -0.8496782E+00 -0.4817600E+00  0.5480473E+00
  0.1082360E+02 -0.1082360E+02  0.0000000E+00  0.7502248E+00 -0.8095555E+00 -0.5175203E+00  0.5431482E+00
  0.1183240E+02 -0.9710590E+01  0.0000000E+00  0.7707162E+00 -0.7757300E+00 -0.5502220E+00  0.5396844E+00
  0.1272720E+02 -0.8504060E+01  0.0000000E+00  0.7847416E+00 -0.7438909E+00 -0.5774438E+00  0.5313926E+00
  0.1349950E+02 -0.7215620E+01  0.0000000E+00  0.7946064E+00 -0.7154486E+00 -0.5997682E+00  0.5212269E+00
  0.1414170E+02 -0.5857700E+01  0.0000000E+00  0.8051935E+00 -0.6934438E+00 -0.6192335E+00  0.5146711E+00
  0.1464780E+02 -0.4443350E+01  0.0000000E+00  0.8146440E+00 -0.6765108E+00 -0.6352284E+00  0.5100291E+00
  0.1501280E+02 -0.2986230E+01  0.0000000E+00  0.8221404E+00 -0.6638215E+00 -0.6475535E+00  0.5065464E+00
  0.1523320E+02 -0.1500330E+01  0.0000000E+00  0.8270093E+00 -0.6547881E+00 -0.6559647E+00  0.5036414E+00
  0.1530690E+02  0.0000000E+00 -0.2568960E-01  0.8282332E+00 -0.6499373E+00 -0.6593745E+00  0.5011941E+00
  0.1523320E+02  0.1500340E+01 -0.2568960E-01  0.8281166E+00 -0.6490501E+00 -0.6597260E+00  0.5005385E+00
  0.1501280E+02  0.2986230E+01 -0.2568960E-01  0.8254369E+00 -0.6521557E+00 -0.6560386E+00  0.5009586E+00
  0.1464780E+02  0.4443360E+01 -0.2568960E-01  0.8198897E+00 -0.6586671E+00 -0.6483759E+00  0.5018244E+00
  0.1414170E+02  0.5857700E+01 -0.2568960E-01  0.8122632E+00 -0.6690262E+00 -0.6371604E+00  0.5037838E+00
  0.1349950E+02  0.7215620E+01 -0.2568960E-01  0.8037716E+00 -0.6840758E+00 -0.6229257E+00  0.5079491E+00
  0.1272720E+02  0.8504060E+01 -0.2568960E-01  0.7961625E+00 -0.7046139E+00 -0.6065658E+00  0.5157061E+00
  0.1183240E+02  0.9710600E+01 -0.2568960E-01  0.7835307E+00 -0.7276300E+00 -0.5851037E+00  0.5211276E+00
  0.1082360E+02  0.1082360E+02 -0.2568960E-01  0.7625909E+00 -0.7519190E+00 -0.5569807E+00  0.5208814E+00
  0.9710590E+01  0.1183240E+02 -0.2568960E-01  0.7417423E+00 -0.7811778E+00 -0.5266998E+00  0.5222728E+00
  0.8504060E+01  0.1272720E+02 -0.2568960E-01  0.7154542E+00 -0.8135689E+00 -0.4914520E+00  0.5199516E+00
  0.7215620E+01  0.1349950E+02 -0.2568960E-01  0.6782959E+00 -0.8479977E+00 -0.4486834E+00  0.5086930E+00
  0.5857700E+01  0.1414170E+02 -0.2568960E-01  0.6393911E+00 -0.8869737E+00 -0.4039422E+00  0.4956325E+00
  0.4443360E+01  0.1464780E+02 -0.2568960E-01  0.5839774E+00 -0.9293752E+00 -0.3494139E+00  0.4679097E+00
  0.2986230E+01  0.1501280E+02 -0.2568960E-01  0.4905700E+00 -0.9727561E+00 -0.2762026E+00  0.4054269E+00
  0.1500340E+01  0.1523320E+02 -0.2568960E-01  0.1968531E+00 -0.1021364E+01 -0.1027973E+00  0.1678805E+00
 -0.6690860E-06  0.1530690E+02 -0.2568960E-01  0.3991430E-01 -0.2378098E+01  0.2883506E-01  0.2759874E-01
 -0.1500340E+01  0.1523320E+02 -0.2568960E-01  0.1900388E+00  0.2594447E+01  0.1622956E+00 -0.9886809E-01
 -0.2986230E+01  0.1501280E+02 -0.2568960E-01  0.4391710E+00  0.2472238E+01  0.3444076E+00 -0.2724968E+00
 -0.4443360E+01  0.1464780E+02 -0.2568960E-01  0.5156606E+00  0.2494373E+01  0.4113750E+00 -0.3109284E+00
 -0.5857700E+01  0.1414170E+02 -0.2568960E-01  0.5623114E+00  0.2522819E+01  0.4580534E+00 -0.3261613E+00
 -0.7215620E+01  0.1349950E+02 -0.2568960E-01  0.5950458E+00  0.2553600E+01  0.4951112E+00 -0.3300673E+00
 -0.8504060E+01  0.1272720E+02 -0.2568960E-01  0.6269710E+00  0.2578413E+01  0.5301427E+00 -0.3347258E+00
 -0.9710590E+01  0.1183240E+02 -0.2568960E-01  0.6490386E+00  0.2604667E+01  0.5577092E+00 -0.3319811E+00
 -0.1082360E+02  0.1082360E+02 -0.2568960E-01  0.6662371E+00  0.2629727E+01  0.5808468E+00 -0.3263261E+00
 -0.1183240E+02  0.9710590E+01 -0.2568960E-01  0.6834875E+00  0.2650494E+01  0.6027096E+00 -0.3223296E+00
 -0.1272720E+02  0.8504060E+01 -0.2568960E-01  0.6932357E+00  0.2671784E+01  0.6181270E+00 -0.3138387E+00
 -0.1349950E+02  0.7215620E+01 -0.2568960E-01  0.6980613E+00  0.2691342E+01  0.6284911E+00 -0.3037904E+00
 -0.1414170E+02  0.5857690E+01 -0.2568960E-01  0.7032636E+00  0.2704708E+01  0.6372089E+00 -0.2975642E+00
 -0.1464780E+02  0.4443360E+01 -0.2568960E-01  0.7073960E+00  0.2713869E+01  0.6436682E+00 -0.2934284E+00
 -0.1501280E+02  0.2986230E+01 -0.2568960E-01  0.7094583E+00  0.2719551E+01  0.6472065E+00 -0.2906109E+00
 -0.1523320E+02  0.1500340E+01 -0.2568960E-01  0.7087094E+00  0.2722344E+01  0.6473315E+00 -0.2884975E+00
 -0.1530690E+02 -0.1338170E-05 -0.2568960E-01  0.7053597E+00  0.2721537E+01  0.6440400E+00 -0.2876538E+00
 -0.1523320E+02 -0.1500340E+01 -0.2568960E-01  0.6993163E+00  0.2717274E+01  0.6373006E+00 -0.2879083E+00
 -0.1501280E+02 -0.2986230E+01 -0.2568960E-01  0.6908154E+00  0.2709490E+01  0.6273205E+00 -0.2893008E+00
 -0.1464780E+02 -0.4443360E+01 -0.2568960E-01  0.6796021E+00  0.2698839E+01  0.6140717E+00 -0.2911614E+00
 -0.1414170E+02 -0.5857700E+01 -0.2568960E-01  0.6663333E+00  0.2684413E+01  0.5979017E+00 -0.2941321E+00
 -0.1349950E+02 -0.7215620E+01 -0.2568960E-01  0.6518822E+00  0.2664669E+01  0.5791395E+00 -0.2992455E+00
 -0.1272720E+02 -0.8504060E+01 -0.2568960E-01  0.6374645E+00  0.2637580E+01  0.5581970E+00 -0.3078588E+00
 -0.1183240E+02 -0.9710600E+01 -0.2568960E-01  0.6184208E+00  0.2608907E+01  0.5327364E+00 -0.3140639E+00
 -0.1082360E+02 -0.1082360E+02 -0.2568960E-01  0.5927756E+00  0.2581936E+01  0.5023402E+00 -0.3147019E+00
 -0.9710600E+01 -0.1183240E+02 -0.2568960E-01  0.5669329E+00  0.2548318E+01  0.4700522E+00 -0.3169602E+00
 -0.8504050E+01 -0.1272720E+02 -0.2568960E-01  0.5365306E+00  0.2512811E+01  0.4339162E+00 -0.3155659E+00
 -0.7215620E+01 -0.1349950E+02 -0.2568960E-01  0.4968539E+00  0.2479787E+01  0.3919600E+00 -0.3053378E+00
 -0.5857690E+01 -0.1414170E+02 -0.2568960E-01  0.4545225E+00  0.2439482E+01  0.3470191E+00 -0.2935446E+00
 -0.4443360E+01 -0.1464780E+02 -0.2568960E-01  0.3979723E+00  0.2404479E+01  0.2946632E+00 -0.2674986E+00
 -0.2986230E+01 -0.1501280E+02 -0.2568960E-01  0.3080932E+00  0.2400435E+01  0.2272766E+00 -0.2080067E+00
 -0.1500340E+01 -0.1523320E+02 -0.2568960E-01  0.9707178E-01 -0.2897481E+01  0.9419383E-01  0.2346174E-01
  0.1825330E-06 -0.1530690E+02 -0.2568960E-01  0.1634902E+00 -0.1556341E+01 -0.2363156E-02  0.1634731E+00
  0.1500340E+01 -0.1523320E+02 -0.2568960E-01  0.3082626E+00 -0.1254092E+01 -0.9600418E-01  0.2929318E+00
  0.2986230E+01 -0.1501280E+02 -0.2568960E-01  0.5223958E+00 -0.1145028E+01 -0.2157602E+00  0.4757573E+00
  0.4443360E+01 -0.1464780E+02 -0.2568960E-01  0.5925395E+00 -0.1065941E+01 -0.2865999E+00  0.5186170E+00
  0.5857700E+01 -0.1414170E+02 -0.2568960E-01  0.6375369E+00 -0.1000425E+01 -0.3442343E+00  0.5366153E+00
  0.7215620E+01 -0.1349950E+02 -0.2568960E-01  0.6705852E+00 -0.9427170E+00 -0.3940303E+00  0.5426091E+00
  0.8504060E+01 -0.1272720E+02 -0.2568960E-01  0.7037861E+00 -0.8943320E+00 -0.4405982E+00  0.5488061E+00
  0.9710600E+01 -0.1183240E+02 -0.2568960E-01  0.7285283E+00 -0.8496927E+00 -0.4809845E+00  0.5471812E+00
  0.1082360E+02 -0.1082360E+02 -0.2568960E-01  0.7490415E+00 -0.8095822E+00 -0.5166895E+00  0.5423054E+00
  0.1183240E+02 -0.9710590E+01 -0.2568960E-01  0.7694765E+00 -0.7757367E+00 -0.5493334E+00  0.5388199E+00
  0.1272720E+02 -0.8504060E+01 -0.2568960E-01  0.7834891E+00 -0.7439040E+00 -0.5765152E+00  0.5305520E+00
  0.1349950E+02 -0.7215620E+01 -0.2568960E-01  0.7933698E+00 -0.7154797E+00 -0.5988187E+00  0.5204344E+00
  0.1414170E+02 -0.5857700E+01 -0.2568960E-01  0.8039498E+00 -0.6934844E+00 -0.6182562E+00  0.5139013E+00
  0.1464780E+02 -0.4443350E+01 -0.2568960E-01  0.8133837E+00 -0.6765519E+00 -0.6342247E+00  0.5092662E+00
  0.1501280E+02 -0.2986230E+01 -0.2568960E-01  0.8208671E+00 -0.6638614E+00 -0.6465304E+00  0.5057877E+00
  0.1523320E+02 -0.1500330E+01 -0.2568960E-01  0.8257272E+00 -0.6548263E+00 -0.6549286E+00  0.5028856E+00
  0.1530690E+02  0.0000000E+00 -0.1027320E+00  0.8244257E+00 -0.6500663E+00 -0.6562788E+00  0.4989748E+00
  0.1523320E+02  0.1500340E+01 -0.1027320E+00  0.8243140E+00 -0.6491784E+00 -0.6566327E+00  0.4983243E+00
  0.1501280E+02  0.2986230E+01 -0.1027320E+00  0.8216547E+00 -0.6522829E+00 -0.6529691E+00  0.4987462E+00
  0.1464780E+02  0.4443360E+01 -0.1027320E+00  0.8161470E+00 -0.6587959E+00 -0.6453519E+00  0.4996168E+00
  0.1414170E+02  0.5857700E+01 -0.1027320E+00  0.8085552E+00 -0.6691518E+00 -0.6341888E+00  0.5015637E+00
  0.1349950E+02  0.7215620E+01 -0.1027320E+00  0.8000673E+00 -0.6841743E+00 -0.6200051E+00  0.5056692E+00
  0.1272720E+02  0.8504060E+01 -0.1027320E+00  0.7923774E+00 -0.7046592E+00 -0.6036587E+00  0.5132817E+00
  0.1183240E+02  0.9710600E+01 -0.1027320E+00  0.7797734E+00 -0.7276638E+00 -0.5822805E+00  0.5186483E+00
  0.1082360E+02  0.1082360E+02 -0.1027320E+00  0.7590284E+00 -0.7519920E+00 -0.5543409E+00  0.5184885E+00
  0.9710590E+01  0.1183240E+02 -0.1027320E+00  0.7382260E+00 -0.7812271E+00 -0.5241774E+00  0.5198228E+00
  0.8504060E+01  0.1272720E+02 -0.1027320E+00  0.7120452E+00 -0.8136044E+00 -0.4890920E+00  0.5174915E+00
  0.7215620E+01  0.1349950E+02 -0.1027320E+00  0.6752353E+00 -0.8480675E+00 -0.4466234E+00  0.5064289E+00
  0.5857700E+01  0.1414170E+02 -0.1027320E+00  0.6365175E+00 -0.8870523E+00 -0.4020880E+00  0.4934367E+00
  0.4443360E+01  0.1464780E+02 -0.1027320E+00  0.5814844E+00 -0.9294525E+00 -0.3478863E+00  0.4659391E+00
  0.2986230E+01  0.1501280E+02 -0.1027320E+00  0.4883718E+00 -0.9727887E+00 -0.2749518E+00  0.4036193E+00
  0.1500340E+01  0.1523320E+02 -0.1027320E+00  0.1960966E+00 -0.1021255E+01 -0.1024205E+00  0.1672242E+00
 -0.6690860E-06  0.1530690E+02 -0.1027320E+00  0.3968380E-01 -0.2379540E+01  0.2870807E-01  0.2739800E-01
 -0.1500340E+01  0.1523320E+02 -0.1027320E+00  0.1893979E+00  0.2593781E+01  0.1616826E+00 -0.9864232E-01
 -0.2986230E+01  0.1501280E+02 -0.1027320E+00  0.4372672E+00  0.2472116E+01  0.3428816E+00 -0.2713573E+00
 -0.4443360E+01  0.1464780E+02 -0.1027320E+00  0.5135106E+00  0.2494202E+01  0.4096071E+00 -0.3097018E+00
 -0.5857700E+01  0.1414170E+02 -0.1027320E+00  0.5598220E+00  0.2522706E+01  0.4559888E+00 -0.3247689E+00
 -0.7215620E+01  0.1349950E+02 -0.1027320E+00  0.5923992E+00  0.2553455E+01  0.4928615E+00 -0.3286707E+00
 -0.8504060E+01  0.1272720E+02 -0.1027320E+00  0.6240109E+00  0.2578373E+01  0.5276265E+00 -0.3331664E+00
 -0.9710590E+01  0.1183240E+02 -0.1027320E+00  0.6459883E+00  0.2604613E+01  0.5550703E+00 -0.3304508E+00
 -0.1082360E+02  0.1082360E+02 -0.1027320E+00  0.6631542E+00  0.2629637E+01  0.5781300E+00 -0.3248679E+00
 -0.1183240E+02  0.9710590E+01 -0.1027320E+00  0.6802323E+00  0.2650453E+01  0.5998260E+00 -0.3208190E+00
 -0.1272720E+02  0.8504060E+01 -0.1027320E+00  0.6899553E+00  0.2671715E+01  0.6151806E+00 -0.3123958E+00
 -0.1349950E+02  0.7215620E+01 -0.1027320E+00  0.6948608E+00  0.2691186E+01  0.6255625E+00 -0.3024947E+00
 -0.1414170E+02  0.5857690E+01 -0.1027320E+00  0.7000729E+00  0.2704515E+01  0.6342607E+00 -0.2963367E+00
 -0.1464780E+02  0.4443360E+01 -0.1027320E+00  0.7041882E+00  0.2713669E+01  0.6406910E+00 -0.2922260E+00
 -0.1501280E+02  0.2986230E+01 -0.1027320E+00  0.7062297E+00  0.2719356E+01  0.6442047E+00 -0.2894145E+00
 -0.1523320E+02  0.1500340E+01 -0.1027320E+00  0.7054729E+00  0.2722146E+01  0.6443186E+00 -0.2873075E+00
 -0.1530690E+02 -0.1338170E-05 -0.1027320E+00  0.7021368E+00  0.2721337E+01  0.6410401E+00 -0.2864674E+00
 -0.1523320E+02 -0.1500340E+01 -0.1027320E+00  0.6961239E+00  0.2717074E+01  0.6343338E+00 -0.2867213E+00
 -0.1501280E+02 -0.2986230E+01 -0.1027320E+00  0.6876650E+00  0.2709279E+01  0.6243991E+00 -0.2881126E+00
 -0.1464780E+02 -0.4443360E+01 -0.1027320E+00  0.6765125E+00  0.2698615E+01  0.6112150E+00 -0.2899750E+00
 -0.1414170E+02 -0.5857700E+01 -0.1027320E+00  0.6633031E+00  0.2684195E+01  0.5951186E+00 -0.2929247E+00
 -0.1349950E+02 -0.7215620E+01 -0.1027320E+00  0.6488879E+00  0.2664487E+01  0.5764251E+00 -0.2979760E+00
 -0.1272720E+02 -0.8504060E+01 -0.1027320E+00  0.6344526E+00  0.2637515E+01  0.5555395E+00 -0.3064406E+00
 -0.1183240E+02 -0.9710600E+01 -0.1027320E+00  0.6154804E+00  0.2608877E+01  0.5301940E+00 -0.3125867E+00
 -0.1082360E+02 -0.1082360E+02 -0.1027320E+00  0.5900339E+00  0.2581814E+01  0.4999786E+00 -0.3133072E+00
 -0.9710600E+01 -0.1183240E+02 -0.1027320E+00  0.5642753E+00  0.2548253E+01  0.4678280E+00 -0.3155051E+00
 -0.8504050E+01 -0.1272720E+02 -0.1027320E+00  0.5340002E+00  0.2512768E+01  0.4318563E+00 -0.3140961E+00
 -0.7215620E+01 -0.1349950E+02 -0.1027320E+00  0.4946470E+00  0.2479588E+01  0.3901586E+00 -0.3040591E+00
 -0.5857690E+01 -0.1414170E+02 -0.1027320E+00  0.4525330E+00  0.2439286E+01  0.3454429E+00 -0.2923273E+00
 -0.4443360E+01 -0.1464780E+02 -0.1027320E+00  0.3963474E+00  0.2404154E+01  0.2933738E+00 -0.2665016E+00
 -0.2986230E+01 -0.1501280E+02 -0.1027320E+00  0.3067749E+00  0.2400233E+01  0.2262621E+00 -0.2071625E+00
 -0.1500340E+01 -0.1523320E+02 -0.1027320E+00  0.9664690E-01 -0.2899448E+01  0.9382731E-01  0.2317453E-01
  0.1825330E-06 -0.1530690E+02 -0.1027320E+00  0.1627467E+00 -0.1556393E+01 -0.2343980E-02  0.1627298E+00
  0.1500340E+01 -0.1523320E+02 -0.1027320E+00  0.3070095E+00 -0.1254194E+01 -0.9558414E-01  0.2917508E+00
  0.2986230E+01 -0.1501280E+02 -0.1027320E+00  0.5200382E+00 -0.1145112E+01 -0.2147468E+00  0.4736281E+00
  0.4443360E+01 -0.1464780E+02 -0.1027320E+00  0.5899527E+00 -0.1066054E+01 -0.2852907E+00  0.5163850E+00
  0.5857700E+01 -0.1414170E+02 -0.1027320E+00  0.6346349E+00 -0.1000519E+01 -0.3426174E+00  0.5342048E+00
  0.7215620E+01 -0.1349950E+02 -0.1027320E+00  0.6675372E+00 -0.9428219E+00 -0.3921827E+00  0.5401839E+00
  0.8504060E+01 -0.1272720E+02 -0.1027320E+00  0.7004310E+00 -0.8943769E+00 -0.4384732E+00  0.5462095E+00
  0.9710600E+01 -0.1183240E+02 -0.1027320E+00  0.7250710E+00 -0.8497436E+00 -0.4786743E+00  0.5446089E+00
  0.1082360E+02 -0.1082360E+02 -0.1027320E+00  0.7455249E+00 -0.8096585E+00 -0.5142226E+00  0.5397985E+00
  0.1183240E+02 -0.9710590E+01 -0.1027320E+00  0.7657924E+00 -0.7757699E+00 -0.5466855E+00  0.5362583E+00
  0.1272720E+02 -0.8504060E+01 -0.1027320E+00  0.7797657E+00 -0.7439523E+00 -0.5737499E+00  0.5280583E+00
  0.1349950E+02 -0.7215620E+01 -0.1027320E+00  0.7896991E+00 -0.7155931E+00 -0.5959893E+00  0.5180941E+00
  0.1414170E+02 -0.5857700E+01 -0.1027320E+00  0.8002596E+00 -0.6936217E+00 -0.6153482E+00  0.5116270E+00
  0.1464780E+02 -0.4443350E+01 -0.1027320E+00  0.8096538E+00 -0.6766945E+00 -0.6312441E+00  0.5070208E+00
  0.1501280E+02 -0.2986230E+01 -0.1027320E+00  0.8170956E+00 -0.6639953E+00 -0.6434925E+00  0.5035500E+00
  0.1523320E+02 -0.1500330E+01 -0.1027320E+00  0.8219360E+00 -0.6549561E+00 -0.6518566E+00  0.5006613E+00
  0.1530690E+02  0.0000000E+00 -0.2310450E+00  0.8182012E+00 -0.6503225E+00 -0.6511970E+00  0.4953743E+00
  0.1523320E+02  0.1500340E+01 -0.2310450E+00  0.8181000E+00 -0.6494316E+00 -0.6515574E+00  0.4947327E+00
  0.1501280E+02  0.2986230E+01 -0.2310450E+00  0.8154696E+00 -0.6525315E+00 -0.6479307E+00  0.4951529E+00
  0.1464780E+02  0.4443360E+01 -0.2310450E+00  0.8100212E+00 -0.6590486E+00 -0.6403826E+00  0.4960286E+00
  0.1414170E+02  0.5857700E+01 -0.2310450E+00  0.8024899E+00 -0.6693918E+00 -0.6293120E+00  0.4979523E+00
  0.1349950E+02  0.7215620E+01 -0.2310450E+00  0.7939987E+00 -0.6843678E+00 -0.6152052E+00  0.5019527E+00
  0.1272720E+02  0.8504060E+01 -0.2310450E+00  0.7861670E+00 -0.7047555E+00 -0.5988784E+00  0.5093164E+00
  0.1183240E+02  0.9710600E+01 -0.2310450E+00  0.7736018E+00 -0.7277376E+00 -0.5776339E+00  0.5145860E+00
  0.1082360E+02  0.1082360E+02 -0.2310450E+00  0.7531731E+00 -0.7521299E+00 -0.5499936E+00  0.5145645E+00
  0.9710590E+01  0.1183240E+02 -0.2310450E+00  0.7324430E+00 -0.7813234E+00 -0.5200214E+00  0.5158007E+00
  0.8504060E+01  0.1272720E+02 -0.2310450E+00  0.7064270E+00 -0.8136705E+00 -0.4851990E+00  0.5134404E+00
  0.7215620E+01  0.1349950E+02 -0.2310450E+00  0.6701797E+00 -0.8481822E+00 -0.4432218E+00  0.5026880E+00
  0.5857700E+01  0.1414170E+02 -0.2310450E+00  0.6317723E+00 -0.8871844E+00 -0.3990258E+00  0.4898109E+00
  0.4443360E+01  0.1464780E+02 -0.2310450E+00  0.5773885E+00 -0.9295799E+00 -0.3453769E+00  0.4627011E+00
  0.2986230E+01  0.1501280E+02 -0.2310450E+00  0.4845115E+00 -0.9727968E+00 -0.2727753E+00  0.4004311E+00
  0.1500340E+01  0.1523320E+02 -0.2310450E+00  0.1952729E+00 -0.1021333E+01 -0.1019774E+00  0.1665297E+00
 -0.6690860E-06  0.1530690E+02 -0.2310450E+00  0.3930971E-01 -0.2381801E+01  0.2849872E-01  0.2707538E-01
 -0.1500340E+01  0.1523320E+02 -0.2310450E+00  0.1886094E+00  0.2592314E+01  0.1608653E+00 -0.9846764E-01
 -0.2986230E+01  0.1501280E+02 -0.2310450E+00  0.4339183E+00  0.2471993E+01  0.3402224E+00 -0.2693210E+00
 -0.4443360E+01  0.1464780E+02 -0.2310450E+00  0.5099794E+00  0.2493891E+01  0.4066948E+00 -0.3076985E+00
 -0.5857700E+01  0.1414170E+02 -0.2310450E+00  0.5557036E+00  0.2522511E+01  0.4525717E+00 -0.3224677E+00
 -0.7215620E+01  0.1349950E+02 -0.2310450E+00  0.5880271E+00  0.2553198E+01  0.4891402E+00 -0.3263706E+00
 -0.8504060E+01  0.1272720E+02 -0.2310450E+00  0.6191261E+00  0.2578279E+01  0.5234652E+00 -0.3306076E+00
 -0.9710590E+01  0.1183240E+02 -0.2310450E+00  0.6409675E+00  0.2604496E+01  0.5507177E+00 -0.3279472E+00
 -0.1082360E+02  0.1082360E+02 -0.2310450E+00  0.6580765E+00  0.2629458E+01  0.5736457E+00 -0.3224831E+00
 -0.1183240E+02  0.9710590E+01 -0.2310450E+00  0.6748788E+00  0.2650348E+01  0.5950719E+00 -0.3183565E+00
 -0.1272720E+02  0.8504060E+01 -0.2310450E+00  0.6845729E+00  0.2671549E+01  0.6103300E+00 -0.3100603E+00
 -0.1349950E+02  0.7215620E+01 -0.2310450E+00  0.6896149E+00  0.2690867E+01  0.6207439E+00 -0.3004091E+00
 -0.1414170E+02  0.5857690E+01 -0.2310450E+00  0.6948464E+00  0.2704139E+01  0.6294150E+00 -0.2943608E+00
 -0.1464780E+02  0.4443360E+01 -0.2310450E+00  0.6989336E+00  0.2713268E+01  0.6357939E+00 -0.2903005E+00
 -0.1501280E+02  0.2986230E+01 -0.2310450E+00  0.7009410E+00  0.2718958E+01  0.6392661E+00 -0.2875014E+00
 -0.1523320E+02  0.1500340E+01 -0.2310450E+00  0.7001804E+00  0.2721744E+01  0.6393701E+00 -0.2854092E+00
 -0.1530690E+02 -0.1338170E-05 -0.2310450E+00  0.6968622E+00  0.2720932E+01  0.6361094E+00 -0.2845730E+00
 -0.1523320E+02 -0.1500340E+01 -0.2310450E+00  0.6909003E+00  0.2716663E+01  0.6294570E+00 -0.2848282E+00
 -0.1501280E+02 -0.2986230E+01 -0.2310450E+00  0.6825070E+00  0.2708864E+01  0.6195968E+00 -0.2862091E+00
 -0.1464780E+02 -0.4443360E+01 -0.2310450E+00  0.6714516E+00  0.2698180E+01  0.6065176E+00 -0.2880690E+00
 -0.1414170E+02 -0.5857700E+01 -0.2310450E+00  0.6583403E+00  0.2683761E+01  0.5905398E+00 -0.2909892E+00
 -0.1349950E+02 -0.7215620E+01 -0.2310450E+00  0.6439843E+00  0.2664131E+01  0.5719637E+00 -0.2959278E+00
 -0.1272720E+02 -0.8504060E+01 -0.2310450E+00  0.6295099E+00  0.2637359E+01  0.5511643E+00 -0.3041393E+00
 -0.1183240E+02 -0.9710600E+01 -0.2310450E+00  0.6106527E+00  0.2608787E+01  0.5260071E+00 -0.3101825E+00
 -0.1082360E+02 -0.1082360E+02 -0.2310450E+00  0.5855322E+00  0.2581582E+01  0.4960918E+00 -0.3110319E+00
 -0.9710600E+01 -0.1183240E+02 -0.2310450E+00  0.5599067E+00  0.2548115E+01  0.4641632E+00 -0.3131262E+00
 -0.8504050E+01 -0.1272720E+02 -0.2310450E+00  0.5298292E+00  0.2512681E+01  0.4284559E+00 -0.3116802E+00
 -0.7215620E+01 -0.1349950E+02 -0.2310450E+00  0.4910067E+00  0.2479254E+01  0.3871865E+00 -0.3019506E+00
 -0.5857690E+01 -0.1414170E+02 -0.2310450E+00  0.4492462E+00  0.2438949E+01  0.3428361E+00 -0.2903197E+00
 -0.4443360E+01 -0.1464780E+02 -0.2310450E+00  0.3936803E+00  0.2403597E+01  0.2912521E+00 -0.2648705E+00
 -0.2986230E+01 -0.1501280E+02 -0.2310450E+00  0.3044089E+00  0.2400218E+01  0.2245140E+00 -0.2055681E+00
 -0.1500340E+01 -0.1523320E+02 -0.2310450E+00  0.9599553E-01 -0.2906794E+01  0.9336152E-01  0.2233312E-01
  0.1825330E-06 -0.1530690E+02 -0.2310450E+00  0.1615120E+00 -0.1556523E+01 -0.2305226E-02  0.1614955E+00
  0.1500340E+01 -0.1523320E+02 -0.2310450E+00  0.3051859E+00 -0.1254273E+01 -0.9499343E-01  0.2900253E+00
  0.2986230E+01 -0.1501280E+02 -0.2310450E+00  0.5159814E+00 -0.1145196E+01 -0.2130321E+00  0.4699512E+00
  0.4443360E+01 -0.1464780E+02 -0.2310450E+00  0.5857025E+00 -0.1066248E+01 -0.2831357E+00  0.5127198E+00
  0.5857700E+01 -0.1414170E+02 -0.2310450E+00  0.6298440E+00 -0.1000668E+01 -0.3399518E+00  0.5302228E+00
  0.7215620E+01 -0.1349950E+02 -0.2310450E+00  0.6625081E+00 -0.9429943E+00 -0.3891356E+00  0.5361813E+00
  0.8504060E+01 -0.1272720E+02 -0.2310450E+00  0.6949091E+00 -0.8944504E+00 -0.4349766E+00  0.5419354E+00
  0.9710600E+01 -0.1183240E+02 -0.2310450E+00  0.7193829E+00 -0.8498409E+00 -0.4748666E+00  0.5403827E+00
  0.1082360E+02 -0.1082360E+02 -0.2310450E+00  0.7397536E+00 -0.8097972E+00 -0.5101676E+00  0.5356906E+00
  0.1183240E+02 -0.9710590E+01 -0.2310450E+00  0.7597485E+00 -0.7758420E+00 -0.5423325E+00  0.5320651E+00
  0.1272720E+02 -0.8504060E+01 -0.2310450E+00  0.7736676E+00 -0.7440565E+00 -0.5692083E+00  0.5239879E+00
  0.1349950E+02 -0.7215620E+01 -0.2310450E+00  0.7836863E+00 -0.7158083E+00 -0.5913407E+00  0.5142766E+00
  0.1414170E+02 -0.5857700E+01 -0.2310450E+00  0.7942238E+00 -0.6938795E+00 -0.6105761E+00  0.5079256E+00
  0.1464780E+02 -0.4443350E+01 -0.2310450E+00  0.8035539E+00 -0.6769620E+00 -0.6263537E+00  0.5033686E+00
  0.1501280E+02 -0.2986230E+01 -0.2310450E+00  0.8109301E+00 -0.6642582E+00 -0.6385055E+00  0.4999183E+00
  0.1523320E+02 -0.1500330E+01 -0.2310450E+00  0.8157278E+00 -0.6552206E+00 -0.6468017E+00  0.4970509E+00
  0.1530690E+02  0.0000000E+00 -0.4105000E+00  0.8095808E+00 -0.6506836E+00 -0.6441591E+00  0.4903877E+00
  0.1523320E+02  0.1500340E+01 -0.4105000E+00  0.8094847E+00 -0.6497935E+00 -0.6445188E+00  0.4897561E+00
  0.1501280E+02  0.2986230E+01 -0.4105000E+00  0.8068987E+00 -0.6528862E+00 -0.6409469E+00  0.4901761E+00
  0.1464780E+02  0.4443360E+01 -0.4105000E+00  0.8015362E+00 -0.6594058E+00 -0.6334993E+00  0.4910590E+00
  0.1414170E+02  0.5857700E+01 -0.4105000E+00  0.7940846E+00 -0.6697346E+00 -0.6225516E+00  0.4929502E+00
  0.1349950E+02  0.7215620E+01 -0.4105000E+00  0.7855895E+00 -0.6846448E+00 -0.6085520E+00  0.4968051E+00
  0.1272720E+02  0.8504060E+01 -0.4105000E+00  0.7775685E+00 -0.7048947E+00 -0.5922582E+00  0.5038283E+00
  0.1183240E+02  0.9710600E+01 -0.4105000E+00  0.7650597E+00 -0.7278457E+00 -0.5712007E+00  0.5089657E+00
  0.1082360E+02  0.1082360E+02 -0.4105000E+00  0.7450758E+00 -0.7523263E+00 -0.5439808E+00  0.5091394E+00
  0.9710590E+01  0.1183240E+02 -0.4105000E+00  0.7244484E+00 -0.7814608E+00 -0.5142754E+00  0.5102415E+00
  0.8504060E+01  0.1272720E+02 -0.4105000E+00  0.6986650E+00 -0.8137709E+00 -0.4798168E+00  0.5078471E+00
  0.7215620E+01  0.1349950E+02 -0.4105000E+00  0.6631714E+00 -0.8483511E+00 -0.4385028E+00  0.4975052E+00
  0.5857700E+01  0.1414170E+02 -0.4105000E+00  0.6251886E+00 -0.8873687E+00 -0.3947782E+00  0.4847793E+00
  0.4443360E+01  0.1464780E+02 -0.4105000E+00  0.5715207E+00 -0.9297341E+00 -0.3417963E+00  0.4580516E+00
  0.2986230E+01  0.1501280E+02 -0.4105000E+00  0.4791025E+00 -0.9728540E+00 -0.2697074E+00  0.3959761E+00
  0.1500340E+01  0.1523320E+02 -0.4105000E+00  0.1935592E+00 -0.1021424E+01 -0.1010674E+00  0.1650773E+00
 -0.6690860E-06  0.1530690E+02 -0.4105000E+00  0.3883049E-01 -0.2384403E+01  0.2822080E-01  0.2667196E-01
 -0.1500340E+01  0.1523320E+02 -0.4105000E+00  0.1870225E+00  0.2591268E+01  0.1594095E+00 -0.9780610E-01
 -0.2986230E+01  0.1501280E+02 -0.4105000E+00  0.4291864E+00  0.2471901E+01  0.3364877E+00 -0.2664151E+00
 -0.4443360E+01  0.1464780E+02 -0.4105000E+00  0.5049102E+00  0.2493539E+01  0.4025448E+00 -0.3047818E+00
 -0.5857700E+01  0.1414170E+02 -0.4105000E+00  0.5499975E+00  0.2522232E+01  0.4478354E+00 -0.3192815E+00
 -0.7215620E+01  0.1349950E+02 -0.4105000E+00  0.5819701E+00  0.2552830E+01  0.4839829E+00 -0.3231868E+00
 -0.8504060E+01  0.1272720E+02 -0.4105000E+00  0.6123843E+00  0.2578138E+01  0.5177189E+00 -0.3270806E+00
 -0.9710590E+01  0.1183240E+02 -0.4105000E+00  0.6340284E+00  0.2604320E+01  0.5446988E+00 -0.3244922E+00
 -0.1082360E+02  0.1082360E+02 -0.4105000E+00  0.6510546E+00  0.2629192E+01  0.5674396E+00 -0.3191934E+00