 VARIABLES="X" "Y" "Z" "abs(eta) (m)" "angle(phi) (rad)" "PRE1" "PRE2"
ZONE N=   3200 ,E =    3136 ,F=FEPOINT,ET=QUADRILATERAL
  0.1530690E+02  0.0000000E+00  0.0000000E+00  0.3597625E+00  0.2152663E+01  0.1977198E+00 -0.3005594E+00
  0.1523320E+02  0.1500340E+01  0.0000000E+00  0.3564338E+00  0.2146170E+01  0.1939530E+00 -0.2990440E+00
  0.1501280E+02  0.2986230E+01  0.0000000E+00  0.3517122E+00  0.2138789E+01  0.1892003E+00 -0.2964873E+00
  0.1464780E+02  0.4443360E+01  0.0000000E+00  0.3457582E+00  0.2130556E+01  0.1835916E+00 -0.2929895E+00
  0.1414170E+02  0.5857700E+01  0.0000000E+00  0.3383748E+00  0.2121574E+01  0.1770884E+00 -0.2883352E+00
  0.1349950E+02  0.7215620E+01  0.0000000E+00  0.3300116E+00  0.2111103E+01  0.1697578E+00 -0.2830017E+00
  0.1272720E+02  0.8504060E+01  0.0000000E+00  0.3223151E+00  0.2096240E+01  0.1616722E+00 -0.2788353E+00
  0.1183240E+02  0.9710600E+01  0.0000000E+00  0.3142118E+00  0.2078465E+01  0.1527514E+00 -0.2745834E+00
  0.1082360E+02  0.1082360E+02  0.0000000E+00  0.3050942E+00  0.2058242E+01  0.1428972E+00 -0.2695605E+00
  0.9710590E+01  0.1183240E+02  0.0000000E+00  0.2930999E+00  0.2038333E+01  0.1320969E+00 -0.2616448E+00
  0.8504060E+01  0.1272720E+02  0.0000000E+00  0.2811945E+00  0.2014380E+01  0.1206829E+00 -0.2539803E+00
  0.7215620E+01  0.1349950E+02  0.0000000E+00  0.2627361E+00  0.1995404E+01  0.1082377E+00 -0.2394052E+00
  0.5857700E+01  0.1414170E+02  0.0000000E+00  0.2411598E+00  0.1975278E+01  0.9490664E-01 -0.2216998E+00
  0.4443360E+01  0.1464780E+02  0.0000000E+00  0.2118634E+00  0.1960459E+01  0.8048183E-01 -0.1959816E+00
  0.2986230E+01  0.1501280E+02  0.0000000E+00  0.1577817E+00  0.1988442E+01  0.6399783E-01 -0.1442198E+00
  0.1500340E+01  0.1523320E+02  0.0000000E+00  0.5215265E-01 -0.2495380E+01  0.4163712E-01  0.3140460E-01
 -0.6690860E-06  0.1530690E+02  0.0000000E+00  0.1393234E+00 -0.1737672E+01  0.2314199E-01  0.1373880E+00
 -0.1500340E+01  0.1523320E+02  0.0000000E+00  0.2316497E+00 -0.1588296E+01  0.4053594E-02  0.2316142E+00
 -0.2986230E+01  0.1501280E+02  0.0000000E+00  0.3527752E+00 -0.1510453E+01 -0.2127472E-01  0.3521332E+00
 -0.4443360E+01  0.1464780E+02  0.0000000E+00  0.3855565E+00 -0.1459763E+01 -0.4272169E-01  0.3831823E+00
 -0.5857700E+01  0.1414170E+02  0.0000000E+00  0.4019704E+00 -0.1418188E+01 -0.6110609E-01  0.3972987E+00
 -0.7215620E+01  0.1349950E+02  0.0000000E+00  0.4146455E+00 -0.1382167E+01 -0.7775149E-01  0.4072905E+00
 -0.8504060E+01  0.1272720E+02  0.0000000E+00  0.4257599E+00 -0.1350881E+01 -0.9287806E-01  0.4155059E+00
 -0.9710590E+01  0.1183240E+02  0.0000000E+00  0.4314613E+00 -0.1321496E+01 -0.1064527E+00  0.4181228E+00
 -0.1082360E+02  0.1082360E+02  0.0000000E+00  0.4375221E+00 -0.1295921E+01 -0.1187551E+00  0.4210971E+00
 -0.1183240E+02  0.9710590E+01  0.0000000E+00  0.4417270E+00 -0.1272666E+01 -0.1297499E+00  0.4222413E+00
 -0.1272720E+02  0.8504060E+01  0.0000000E+00  0.4456074E+00 -0.1252323E+01 -0.1395272E+00  0.4231999E+00
 -0.1349950E+02  0.7215620E+01  0.0000000E+00  0.4491435E+00 -0.1234952E+01 -0.1480225E+00  0.4240510E+00
 -0.1414170E+02  0.5857690E+01  0.0000000E+00  0.4532585E+00 -0.1221062E+01 -0.1553082E+00  0.4258199E+00
 -0.1464780E+02  0.4443360E+01  0.0000000E+00  0.4566464E+00 -0.1209660E+01 -0.1613501E+00  0.4271909E+00
 -0.1501280E+02  0.2986230E+01  0.0000000E+00  0.4587347E+00 -0.1200279E+01 -0.1661070E+00  0.4276049E+00
 -0.1523320E+02  0.1500340E+01  0.0000000E+00  0.4598804E+00 -0.1192995E+01 -0.1696397E+00  0.4274486E+00
 -0.1530690E+02 -0.1338170E-05  0.0000000E+00  0.4598163E+00 -0.1187761E+01 -0.1718506E+00  0.4264955E+00
 -0.1523320E+02 -0.1500340E+01  0.0000000E+00  0.4586203E+00 -0.1184758E+01 -0.1726804E+00  0.4248694E+00
 -0.1501280E+02 -0.2986230E+01  0.0000000E+00  0.4558730E+00 -0.1183907E+01 -0.1720052E+00  0.4221782E+00
 -0.1464780E+02 -0.4443360E+01  0.0000000E+00  0.4516391E+00 -0.1185428E+01 -0.1697712E+00  0.4185160E+00
 -0.1414170E+02 -0.5857700E+01  0.0000000E+00  0.4457603E+00 -0.1189063E+01 -0.1660590E+00  0.4136746E+00
 -0.1349950E+02 -0.7215620E+01  0.0000000E+00  0.4387625E+00 -0.1194929E+01 -0.1610609E+00  0.4081322E+00
 -0.1272720E+02 -0.8504060E+01  0.0000000E+00  0.4326214E+00 -0.1203492E+01 -0.1553546E+00  0.4037650E+00
 -0.1183240E+02 -0.9710600E+01  0.0000000E+00  0.4261120E+00 -0.1214258E+01 -0.1487267E+00  0.3993142E+00
 -0.1082360E+02 -0.1082360E+02  0.0000000E+00  0.4186051E+00 -0.1226883E+01 -0.1411425E+00  0.3940927E+00
 -0.9710600E+01 -0.1183240E+02  0.0000000E+00  0.4079199E+00 -0.1241092E+01 -0.1320694E+00  0.3859486E+00
 -0.8504050E+01 -0.1272720E+02  0.0000000E+00  0.3973787E+00 -0.1257479E+01 -0.1224784E+00  0.3780329E+00
 -0.7215620E+01 -0.1349950E+02  0.0000000E+00  0.3795426E+00 -0.1275807E+01 -0.1103443E+00  0.3631483E+00
 -0.5857690E+01 -0.1414170E+02  0.0000000E+00  0.3584990E+00 -0.1296183E+01 -0.9721581E-01  0.3450661E+00
 -0.4443360E+01 -0.1464780E+02  0.0000000E+00  0.3291689E+00 -0.1319198E+01 -0.8194718E-01  0.3188053E+00
 -0.2986230E+01 -0.1501280E+02  0.0000000E+00  0.2727109E+00 -0.1350704E+01 -0.5953819E-01  0.2661324E+00
 -0.1500340E+01 -0.1523320E+02  0.0000000E+00  0.8858581E-01 -0.1571626E+01  0.7349802E-04  0.8858578E-01
  0.1825330E-06 -0.1530690E+02  0.0000000E+00  0.4702636E-01  0.2756842E+01  0.4358837E-01 -0.1765030E-01
  0.1500340E+01 -0.1523320E+02  0.0000000E+00  0.1404532E+00  0.2227685E+01  0.8576858E-01 -0.1112244E+00
  0.2986230E+01 -0.1501280E+02  0.0000000E+00  0.2682844E+00  0.2116122E+01  0.1391581E+00 -0.2293720E+00
  0.4443360E+01 -0.1464780E+02  0.0000000E+00  0.3019568E+00  0.2108792E+01  0.1547275E+00 -0.2593015E+00
  0.5857700E+01 -0.1414170E+02  0.0000000E+00  0.3183838E+00  0.2113031E+01  0.1643024E+00 -0.2727140E+00
  0.7215620E+01 -0.1349950E+02  0.0000000E+00  0.3306372E+00  0.2118916E+01  0.1722895E+00 -0.2822007E+00
  0.8504060E+01 -0.1272720E+02  0.0000000E+00  0.3411747E+00  0.2125495E+01  0.1796924E+00 -0.2900186E+00
  0.9710600E+01 -0.1183240E+02  0.0000000E+00  0.3458960E+00  0.2134722E+01  0.1848844E+00 -0.2923386E+00
  0.1082360E+02 -0.1082360E+02  0.0000000E+00  0.3509477E+00  0.2142825E+01  0.1899816E+00 -0.2950784E+00
  0.1183240E+02 -0.9710590E+01  0.0000000E+00  0.3538552E+00  0.2150332E+01  0.1937837E+00 -0.2960766E+00
  0.1272720E+02 -0.8504060E+01  0.0000000E+00  0.3562192E+00  0.2155933E+01  0.1967448E+00 -0.2969573E+00
  0.1349950E+02 -0.7215620E+01  0.0000000E+00  0.3582053E+00  0.2160129E+01  0.1990927E+00 -0.2977803E+00
  0.1414170E+02 -0.5857700E+01  0.0000000E+00  0.3607685E+00  0.2161897E+01  0.2010473E+00 -0.2995562E+00
  0.1464780E+02 -0.4443350E+01  0.0000000E+00  0.3625023E+00  0.2161973E+01  0.2020366E+00 -0.3009803E+00
  0.1501280E+02 -0.2986230E+01  0.0000000E+00  0.3628171E+00  0.2160791E+01  0.2018557E+00 -0.3014806E+00
  0.1523320E+02 -0.1500330E+01  0.0000000E+00  0.3619542E+00  0.2157548E+01  0.2003993E+00 -0.3014150E+00
  0.1530690E+02  0.0000000E+00 -0.2568960E-01  0.3593532E+00  0.2152674E+01  0.1974982E+00 -0.3002152E+00
  0.1523320E+02  0.1500340E+01 -0.2568960E-01  0.3560303E+00  0.2146180E+01  0.1937363E+00 -0.2987035E+00
  0.1501280E+02  0.2986230E+01 -0.2568960E-01  0.3513190E+00  0.2138792E+01  0.1889896E+00 -0.2961553E+00
  0.1464780E+02  0.4443360E+01 -0.2568960E-01  0.3453819E+00  0.2130554E+01  0.1833911E+00 -0.2926711E+00
  0.1414170E+02  0.5857700E+01 -0.2568960E-01  0.3380173E+00  0.2121542E+01  0.1768923E+00 -0.2880361E+00
  0.1349950E+02  0.7215620E+01 -0.2568960E-01  0.3296771E+00  0.2111064E+01  0.1695745E+00 -0.2827215E+00
  0.1272720E+02  0.8504060E+01 -0.2568960E-01  0.3219856E+00  0.2096194E+01  0.1614940E+00 -0.2785577E+00
  0.1183240E+02  0.9710600E+01 -0.2568960E-01  0.3138833E+00  0.2078433E+01  0.1525829E+00 -0.2743012E+00
  0.1082360E+02  0.1082360E+02 -0.2568960E-01  0.3047743E+00  0.2058220E+01  0.1427414E+00 -0.2692810E+00
  0.9710590E+01  0.1183240E+02 -0.2568960E-01  0.2928069E+00  0.2038301E+01  0.1319564E+00 -0.2613874E+00
  0.8504060E+01  0.1272720E+02 -0.2568960E-01  0.2808911E+00  0.2014374E+01  0.1205511E+00 -0.2537070E+00
  0.7215620E+01  0.1349950E+02 -0.2568960E-01  0.2624938E+00  0.1995341E+01  0.1081228E+00 -0.2391913E+00
  0.5857700E+01  0.1414170E+02 -0.2568960E-01  0.2409206E+00  0.1975245E+01  0.9480517E-01 -0.2214830E+00
  0.4443360E+01  0.1464780E+02 -0.2568960E-01  0.2116696E+00  0.1960417E+01  0.8040000E-01 -0.1958057E+00
  0.2986230E+01  0.1501280E+02 -0.2568960E-01  0.1576076E+00  0.1988474E+01  0.6393170E-01 -0.1440587E+00
  0.1500340E+01  0.1523320E+02 -0.2568960E-01  0.5202423E-01 -0.2497564E+01  0.4160291E-01  0.3123649E-01
 -0.6690860E-06  0.1530690E+02 -0.2568960E-01  0.1391799E+00 -0.1737681E+01  0.2311927E-01  0.1372463E+00
 -0.1500340E+01  0.1523320E+02 -0.2568960E-01  0.2314792E+00 -0.1588277E+01  0.4046148E-02  0.2314439E+00
 -0.2986230E+01  0.1501280E+02 -0.2568960E-01  0.3524041E+00 -0.1510470E+01 -0.2124645E-01  0.3517631E+00
 -0.4443360E+01  0.1464780E+02 -0.2568960E-01  0.3851619E+00 -0.1459772E+01 -0.4267468E-01  0.3827905E+00
 -0.5857700E+01  0.1414170E+02 -0.2568960E-01  0.4015534E+00 -0.1418199E+01 -0.6103842E-01  0.3968872E+00
 -0.7215620E+01  0.1349950E+02 -0.2568960E-01  0.4142293E+00 -0.1382188E+01 -0.7766484E-01  0.4068834E+00
 -0.8504060E+01  0.1272720E+02 -0.2568960E-01  0.4252937E+00 -0.1350889E+01 -0.9277305E-01  0.4150517E+00
 -0.9710590E+01  0.1183240E+02 -0.2568960E-01  0.4310093E+00 -0.1321512E+01 -0.1063344E+00  0.4176865E+00
 -0.1082360E+02  0.1082360E+02 -0.2568960E-01  0.4370545E+00 -0.1295929E+01 -0.1186249E+00  0.4206480E+00
 -0.1183240E+02  0.9710590E+01 -0.2568960E-01  0.4412562E+00 -0.1272683E+01 -0.1296044E+00  0.4217935E+00
 -0.1272720E+02  0.8504060E+01 -0.2568960E-01  0.4451396E+00 -0.1252340E+01 -0.1393736E+00  0.4227580E+00
 -0.1349950E+02  0.7215620E+01 -0.2568960E-01  0.4486716E+00 -0.1234975E+01 -0.1478575E+00  0.4236088E+00
 -0.1414170E+02  0.5857690E+01 -0.2568960E-01  0.4527729E+00 -0.1221074E+01 -0.1551369E+00  0.4253655E+00
 -0.1464780E+02  0.4443360E+01 -0.2568960E-01  0.4561435E+00 -0.1209672E+01 -0.1611676E+00  0.4267223E+00
 -0.1501280E+02  0.2986230E+01 -0.2568960E-01  0.4582209E+00 -0.1200279E+01 -0.1659207E+00  0.4271261E+00
 -0.1523320E+02  0.1500340E+01 -0.2568960E-01  0.4593593E+00 -0.1192988E+01 -0.1694504E+00  0.4269632E+00
 -0.1530690E+02 -0.1338170E-05 -0.2568960E-01  0.4592917E+00 -0.1187763E+01 -0.1716537E+00  0.4260092E+00
 -0.1523320E+02 -0.1500340E+01 -0.2568960E-01  0.4580975E+00 -0.1184760E+01 -0.1724827E+00  0.4243855E+00
 -0.1501280E+02 -0.2986230E+01 -0.2568960E-01  0.4553597E+00 -0.1183913E+01 -0.1718092E+00  0.4217037E+00
 -0.1464780E+02 -0.4443360E+01 -0.2568960E-01  0.4511412E+00 -0.1185436E+01 -0.1695811E+00  0.4180558E+00
 -0.1414170E+02 -0.5857700E+01 -0.2568960E-01  0.4452825E+00 -0.1189073E+01 -0.1658766E+00  0.4132329E+00
 -0.1349950E+02 -0.7215620E+01 -0.2568960E-01  0.4383066E+00 -0.1194943E+01 -0.1608876E+00  0.4077105E+00
 -0.1272720E+02 -0.8504060E+01 -0.2568960E-01  0.4321705E+00 -0.1203506E+01 -0.1551873E+00  0.4033462E+00
 -0.1183240E+02 -0.9710600E+01 -0.2568960E-01  0.4256593E+00 -0.1214267E+01 -0.1485654E+00  0.3988911E+00
 -0.1082360E+02 -0.1082360E+02 -0.2568960E-01  0.4181570E+00 -0.1226892E+01 -0.1409878E+00  0.3936720E+00
 -0.9710600E+01 -0.1183240E+02 -0.2568960E-01  0.4074981E+00 -0.1241101E+01 -0.1319295E+00  0.3855506E+00
 -0.8504050E+01 -0.1272720E+02 -0.2568960E-01  0.3969433E+00 -0.1257485E+01 -0.1223419E+00  0.3776195E+00
 -0.7215620E+01 -0.1349950E+02 -0.2568960E-01  0.3791724E+00 -0.1275808E+01 -0.1102362E+00  0.3627943E+00
 -0.5857690E+01 -0.1414170E+02 -0.2568960E-01  0.3581273E+00 -0.1296189E+01 -0.9711306E-01  0.3447089E+00
 -0.4443360E+01 -0.1464780E+02 -0.2568960E-01  0.3288429E+00 -0.1319198E+01 -0.8186618E-01  0.3184895E+00
 -0.2986230E+01 -0.1501280E+02 -0.2568960E-01  0.2724027E+00 -0.1350708E+01 -0.5946990E-01  0.2658318E+00
 -0.1500340E+01 -0.1523320E+02 -0.2568960E-01  0.8861788E-01 -0.1571248E+01  0.3999443E-04  0.8861788E-01
  0.1825330E-06 -0.1530690E+02 -0.2568960E-01  0.4698612E-01  0.2756601E+01  0.4354681E-01 -0.1764569E-01
  0.1500340E+01 -0.1523320E+02 -0.2568960E-01  0.1403898E+00  0.2227511E+01  0.8571056E-01 -0.1111891E+00
  0.2986230E+01 -0.1501280E+02 -0.2568960E-01  0.2680133E+00  0.2116101E+01  0.1390127E+00 -0.2291432E+00
  0.4443360E+01 -0.1464780E+02 -0.2568960E-01  0.3016618E+00  0.2108776E+01  0.1545722E+00 -0.2590508E+00
  0.5857700E+01 -0.1414170E+02 -0.2568960E-01  0.3180657E+00  0.2113014E+01  0.1641335E+00 -0.2724445E+00
  0.7215620E+01 -0.1349950E+02 -0.2568960E-01  0.3303210E+00  0.2118886E+01  0.1721163E+00 -0.2819361E+00
  0.8504060E+01 -0.1272720E+02 -0.2568960E-01  0.3408069E+00  0.2125492E+01  0.1794977E+00 -0.2897066E+00
  0.9710600E+01 -0.1183240E+02 -0.2568960E-01  0.3455437E+00  0.2134700E+01  0.1846895E+00 -0.2920450E+00
  0.1082360E+02 -0.1082360E+02 -0.2568960E-01  0.3505796E+00  0.2142806E+01  0.1897766E+00 -0.2947726E+00
  0.1183240E+02 -0.9710590E+01 -0.2568960E-01  0.3534856E+00  0.2150310E+01  0.1935749E+00 -0.2957717E+00
  0.1272720E+02 -0.8504060E+01 -0.2568960E-01  0.3558546E+00  0.2155909E+01  0.1965360E+00 -0.2966582E+00
  0.1349950E+02 -0.7215620E+01 -0.2568960E-01  0.3578380E+00  0.2160101E+01  0.1988802E+00 -0.2974806E+00
  0.1414170E+02 -0.5857700E+01 -0.2568960E-01  0.3603872E+00  0.2161870E+01  0.2008267E+00 -0.2992450E+00
  0.1464780E+02 -0.4443350E+01 -0.2568960E-01  0.3621083E+00  0.2161965E+01  0.2018144E+00 -0.3006549E+00
  0.1501280E+02 -0.2986230E+01 -0.2568960E-01  0.3624132E+00  0.2160792E+01  0.2016313E+00 -0.3011447E+00
  0.1523320E+02 -0.1500330E+01 -0.2568960E-01  0.3615444E+00  0.2157554E+01  0.2001740E+00 -0.3010727E+00
  0.1530690E+02  0.0000000E+00 -0.1027320E+00  0.3581139E+00  0.2152722E+01  0.1968314E+00 -0.2991705E+00
  0.1523320E+02  0.1500340E+01 -0.1027320E+00  0.3548063E+00  0.2146237E+01  0.1930872E+00 -0.2976656E+00
  0.1501280E+02  0.2986230E+01 -0.1027320E+00  0.3501299E+00  0.2138840E+01  0.1883643E+00 -0.2951438E+00
  0.1464780E+02  0.4443360E+01 -0.1027320E+00  0.3442396E+00  0.2130559E+01  0.1827860E+00 -0.2917021E+00
  0.1414170E+02  0.5857700E+01 -0.1027320E+00  0.3369369E+00  0.2121499E+01  0.1763145E+00 -0.2871231E+00
  0.1349950E+02  0.7215620E+01 -0.1027320E+00  0.3286581E+00  0.2110964E+01  0.1690221E+00 -0.2818647E+00
  0.1272720E+02  0.8504060E+01 -0.1027320E+00  0.3209890E+00  0.2096101E+01  0.1609685E+00 -0.2777104E+00
  0.1183240E+02  0.9710600E+01 -0.1027320E+00  0.3128869E+00  0.2078383E+01  0.1520848E+00 -0.2734382E+00
  0.1082360E+02  0.1082360E+02 -0.1027320E+00  0.3038033E+00  0.2058178E+01  0.1422753E+00 -0.2684290E+00
  0.9710590E+01  0.1183240E+02 -0.1027320E+00  0.2919147E+00  0.2038209E+01  0.1315304E+00 -0.2606031E+00
  0.8504060E+01  0.1272720E+02 -0.1027320E+00  0.2799734E+00  0.2014378E+01  0.1201581E+00 -0.2528777E+00
  0.7215620E+01  0.1349950E+02 -0.1027320E+00  0.2617303E+00  0.1995219E+01  0.1077791E+00 -0.2385087E+00
  0.5857700E+01  0.1414170E+02 -0.1027320E+00  0.2402035E+00  0.1975156E+01  0.9450328E-01 -0.2208321E+00
  0.4443360E+01  0.1464780E+02 -0.1027320E+00  0.2110704E+00  0.1960289E+01  0.8014758E-01 -0.1952616E+00
  0.2986230E+01  0.1501280E+02 -0.1027320E+00  0.1571747E+00  0.1988325E+01  0.6373471E-01 -0.1436724E+00
  0.1500340E+01  0.1523320E+02 -0.1027320E+00  0.5177168E-01 -0.2500151E+01  0.4148122E-01  0.3097765E-01
 -0.6690860E-06  0.1530690E+02 -0.1027320E+00  0.1387426E+00 -0.1737752E+01  0.2305634E-01  0.1368134E+00
 -0.1500340E+01  0.1523320E+02 -0.1027320E+00  0.2308441E+00 -0.1588309E+01  0.4042554E-02  0.2308087E+00
 -0.2986230E+01  0.1501280E+02 -0.1027320E+00  0.3513663E+00 -0.1510516E+01 -0.2116776E-01  0.3507282E+00
 -0.4443360E+01  0.1464780E+02 -0.1027320E+00  0.3839666E+00 -0.1459816E+01 -0.4252520E-01  0.3816045E+00
 -0.5857700E+01  0.1414170E+02 -0.1027320E+00  0.4003040E+00 -0.1418239E+01 -0.6083279E-01  0.3956547E+00
 -0.7215620E+01  0.1349950E+02 -0.1027320E+00  0.4129489E+00 -0.1382248E+01 -0.7740033E-01  0.4056303E+00
 -0.8504060E+01  0.1272720E+02 -0.1027320E+00  0.4238854E+00 -0.1350913E+01 -0.9245612E-01  0.4136795E+00
 -0.9710590E+01  0.1183240E+02 -0.1027320E+00  0.4296432E+00 -0.1321561E+01 -0.1059769E+00  0.4163678E+00
 -0.1082360E+02  0.1082360E+02 -0.1027320E+00  0.4356380E+00 -0.1295965E+01 -0.1182253E+00  0.4192890E+00
 -0.1183240E+02  0.9710590E+01 -0.1027320E+00  0.4398310E+00 -0.1272721E+01 -0.1291701E+00  0.4204360E+00
 -0.1272720E+02  0.8504060E+01 -0.1027320E+00  0.4437203E+00 -0.1252389E+01 -0.1389084E+00  0.4214168E+00
 -0.1349950E+02  0.7215620E+01 -0.1027320E+00  0.4472430E+00 -0.1235030E+01 -0.1473632E+00  0.4222682E+00
 -0.1414170E+02  0.5857690E+01 -0.1027320E+00  0.4513000E+00 -0.1221110E+01 -0.1546168E+00  0.4239874E+00
 -0.1464780E+02  0.4443360E+01 -0.1027320E+00  0.4546247E+00 -0.1209684E+01 -0.1606256E+00  0.4253034E+00
 -0.1501280E+02  0.2986230E+01 -0.1027320E+00  0.4566679E+00 -0.1200279E+01 -0.1653586E+00  0.4256784E+00
 -0.1523320E+02  0.1500340E+01 -0.1027320E+00  0.4577822E+00 -0.1192986E+01 -0.1688694E+00  0.4254970E+00
 -0.1530690E+02 -0.1338170E-05 -0.1027320E+00  0.4577055E+00 -0.1187761E+01 -0.1710616E+00  0.4245377E+00
 -0.1523320E+02 -0.1500340E+01 -0.1027320E+00  0.4565170E+00 -0.1184764E+01 -0.1718858E+00  0.4229220E+00
 -0.1501280E+02 -0.2986230E+01 -0.1027320E+00  0.4538060E+00 -0.1183924E+01 -0.1712181E+00  0.4202669E+00
 -0.1464780E+02 -0.4443360E+01 -0.1027320E+00  0.4496320E+00 -0.1185457E+01 -0.1690049E+00  0.4166608E+00
 -0.1414170E+02 -0.5857700E+01 -0.1027320E+00  0.4438348E+00 -0.1189107E+01 -0.1653233E+00  0.4118950E+00
 -0.1349950E+02 -0.7215620E+01 -0.1027320E+00  0.4369227E+00 -0.1194980E+01 -0.1603645E+00  0.4064291E+00
 -0.1272720E+02 -0.8504060E+01 -0.1027320E+00  0.4308023E+00 -0.1203536E+01 -0.1546836E+00  0.4020741E+00
 -0.1183240E+02 -0.9710600E+01 -0.1027320E+00  0.4242844E+00 -0.1214286E+01 -0.1480778E+00  0.3976056E+00
 -0.1082360E+02 -0.1082360E+02 -0.1027320E+00  0.4167991E+00 -0.1226916E+01 -0.1405209E+00  0.3923970E+00
 -0.9710600E+01 -0.1183240E+02 -0.1027320E+00  0.4062193E+00 -0.1241130E+01 -0.1315041E+00  0.3843447E+00
 -0.8504050E+01 -0.1272720E+02 -0.1027320E+00  0.3956250E+00 -0.1257509E+01 -0.1219265E+00  0.3763682E+00
 -0.7215620E+01 -0.1349950E+02 -0.1027320E+00  0.3780185E+00 -0.1275827E+01 -0.1098940E+00  0.3616922E+00
 -0.5857690E+01 -0.1414170E+02 -0.1027320E+00  0.3570133E+00 -0.1296200E+01 -0.9680704E-01  0.3436378E+00
 -0.4443360E+01 -0.1464780E+02 -0.1027320E+00  0.3278498E+00 -0.1319208E+01 -0.8161582E-01  0.3175285E+00
 -0.2986230E+01 -0.1501280E+02 -0.1027320E+00  0.2715819E+00 -0.1350672E+01 -0.5930008E-01  0.2650287E+00
 -0.1500340E+01 -0.1523320E+02 -0.1027320E+00  0.8846991E-01 -0.1570810E+01  0.1231497E-05  0.8846991E-01
  0.1825330E-06 -0.1530690E+02 -0.1027320E+00  0.4685228E-01  0.2755992E+01  0.4341204E-01 -0.1762186E-01
  0.1500340E+01 -0.1523320E+02 -0.1027320E+00  0.1400753E+00  0.2227248E+01  0.8548937E-01 -0.1109624E+00
  0.2986230E+01 -0.1501280E+02 -0.1027320E+00  0.2672735E+00  0.2115988E+01  0.1386033E+00 -0.2285263E+00
  0.4443360E+01 -0.1464780E+02 -0.1027320E+00  0.3007602E+00  0.2108729E+01  0.1540980E+00 -0.2582837E+00
  0.5857700E+01 -0.1414170E+02 -0.1027320E+00  0.3171085E+00  0.2112950E+01  0.1636223E+00 -0.2716349E+00
  0.7215620E+01 -0.1349950E+02 -0.1027320E+00  0.3293371E+00  0.2118823E+01  0.1715860E+00 -0.2811071E+00
  0.8504060E+01 -0.1272720E+02 -0.1027320E+00  0.3396916E+00  0.2125480E+01  0.1789071E+00 -0.2887606E+00
  0.9710600E+01 -0.1183240E+02 -0.1027320E+00  0.3444770E+00  0.2134650E+01  0.1841047E+00 -0.2911526E+00
  0.1082360E+02 -0.1082360E+02 -0.1027320E+00  0.3494621E+00  0.2142764E+01  0.1891595E+00 -0.2938408E+00
  0.1183240E+02 -0.9710590E+01 -0.1027320E+00  0.3523641E+00  0.2150263E+01  0.1929468E+00 -0.2948423E+00
  0.1272720E+02 -0.8504060E+01 -0.1027320E+00  0.3547449E+00  0.2155848E+01  0.1959052E+00 -0.2957449E+00
  0.1349950E+02 -0.7215620E+01 -0.1027320E+00  0.3567257E+00  0.2160042E+01  0.1982447E+00 -0.2965675E+00
  0.1414170E+02 -0.5857700E+01 -0.1027320E+00  0.3592335E+00  0.2161830E+01  0.2001719E+00 -0.2982951E+00
  0.1464780E+02 -0.4443350E+01 -0.1027320E+00  0.3609110E+00  0.2161954E+01  0.2011440E+00 -0.2996629E+00
  0.1501280E+02 -0.2986230E+01 -0.1027320E+00  0.3611866E+00  0.2160800E+01  0.2009514E+00 -0.3001238E+00
  0.1523320E+02 -0.1500330E+01 -0.1027320E+00  0.3603045E+00  0.2157589E+01  0.1994983E+00 -0.3000330E+00
  0.1530690E+02  0.0000000E+00 -0.2310450E+00  0.3561008E+00  0.2152765E+01  0.1957377E+00 -0.2974803E+00
  0.1523320E+02  0.1500340E+01 -0.2310450E+00  0.3528172E+00  0.2146289E+01  0.1920202E+00 -0.2959869E+00
  0.1501280E+02  0.2986230E+01 -0.2310450E+00  0.3481950E+00  0.2138870E+01  0.1873321E+00 -0.2935071E+00
  0.1464780E+02  0.4443360E+01 -0.2310450E+00  0.3423800E+00  0.2130534E+01  0.1817913E+00 -0.2901309E+00
  0.1414170E+02  0.5857700E+01 -0.2310450E+00  0.3351768E+00  0.2121389E+01  0.1753620E+00 -0.2856426E+00
  0.1349950E+02  0.7215620E+01 -0.2310450E+00  0.3269960E+00  0.2110764E+01  0.1681114E+00 -0.2804727E+00
  0.1272720E+02  0.8504060E+01 -0.2310450E+00  0.3193563E+00  0.2095918E+01  0.1600992E+00 -0.2763272E+00
  0.1183240E+02  0.9710600E+01 -0.2310450E+00  0.3112536E+00  0.2078269E+01  0.1512598E+00 -0.2720281E+00
  0.1082360E+02  0.1082360E+02 -0.2310450E+00  0.3022029E+00  0.2058097E+01  0.1415043E+00 -0.2670265E+00
  0.9710590E+01  0.1183240E+02 -0.2310450E+00  0.2904411E+00  0.2038052E+01  0.1308257E+00 -0.2593080E+00
  0.8504060E+01  0.1272720E+02 -0.2310450E+00  0.2784511E+00  0.2014399E+01  0.1195101E+00 -0.2515002E+00
  0.7215620E+01  0.1349950E+02 -0.2310450E+00  0.2604532E+00  0.1995011E+01  0.1072039E+00 -0.2373672E+00
  0.5857700E+01  0.1414170E+02 -0.2310450E+00  0.2390053E+00  0.1975032E+01  0.9400464E-01 -0.2197422E+00
  0.4443360E+01  0.1464780E+02 -0.2310450E+00  0.2100480E+00  0.1960126E+01  0.7972763E-01 -0.1943288E+00
  0.2986230E+01  0.1501280E+02 -0.2310450E+00  0.1563290E+00  0.1988373E+01  0.6339865E-01 -0.1428963E+00
  0.1500340E+01  0.1523320E+02 -0.2310450E+00  0.5139107E-01 -0.2503435E+01  0.4127704E-01  0.3061450E-01
 -0.6690860E-06  0.1530690E+02 -0.2310450E+00  0.1380499E+00 -0.1737814E+01  0.2294977E-01  0.1361290E+00
 -0.1500340E+01  0.1523320E+02 -0.2310450E+00  0.2297307E+00 -0.1588342E+01  0.4030545E-02  0.2296953E+00
 -0.2986230E+01  0.1501280E+02 -0.2310450E+00  0.3495278E+00 -0.1510573E+01 -0.2103688E-01  0.3488941E+00
 -0.4443360E+01  0.1464780E+02 -0.2310450E+00  0.3819644E+00 -0.1459867E+01 -0.4228421E-01  0.3796167E+00
 -0.5857700E+01  0.1414170E+02 -0.2310450E+00  0.3982234E+00 -0.1418303E+01 -0.6049151E-01  0.3936022E+00
 -0.7215620E+01  0.1349950E+02 -0.2310450E+00  0.4108212E+00 -0.1382328E+01 -0.7696922E-01  0.4035465E+00
 -0.8504060E+01  0.1272720E+02 -0.2310450E+00  0.4215564E+00 -0.1350935E+01 -0.9193888E-01  0.4114086E+00
 -0.9710590E+01  0.1183240E+02 -0.2310450E+00  0.4273879E+00 -0.1321637E+01 -0.1053891E+00  0.4141902E+00
 -0.1082360E+02  0.1082360E+02 -0.2310450E+00  0.4333087E+00 -0.1296016E+01 -0.1175722E+00  0.4170530E+00
 -0.1183240E+02  0.9710590E+01 -0.2310450E+00  0.4374929E+00 -0.1272783E+01 -0.1284572E+00  0.4182090E+00
 -0.1272720E+02  0.8504060E+01 -0.2310450E+00  0.4413964E+00 -0.1252480E+01 -0.1381429E+00  0.4192223E+00
 -0.1349950E+02  0.7215620E+01 -0.2310450E+00  0.4449078E+00 -0.1235129E+01 -0.1465522E+00  0.4200779E+00
 -0.1414170E+02  0.5857690E+01 -0.2310450E+00  0.4488950E+00 -0.1221185E+01 -0.1537612E+00  0.4217395E+00
 -0.1464780E+02  0.4443360E+01 -0.2310450E+00  0.4521437E+00 -0.1209730E+01 -0.1597297E+00  0.4229898E+00
 -0.1501280E+02  0.2986230E+01 -0.2310450E+00  0.4541336E+00 -0.1200293E+01 -0.1644347E+00  0.4233185E+00
 -0.1523320E+02  0.1500340E+01 -0.2310450E+00  0.4552085E+00 -0.1192993E+01 -0.1679171E+00  0.4231060E+00
 -0.1530690E+02 -0.1338170E-05 -0.2310450E+00  0.4551196E+00 -0.1187767E+01 -0.1700928E+00  0.4221401E+00
 -0.1523320E+02 -0.1500340E+01 -0.2310450E+00  0.4539390E+00 -0.1184781E+01 -0.1709079E+00  0.4205366E+00
 -0.1501280E+02 -0.2986230E+01 -0.2310450E+00  0.4512694E+00 -0.1183960E+01 -0.1702461E+00  0.4179238E+00
 -0.1464780E+02 -0.4443360E+01 -0.2310450E+00  0.4471675E+00 -0.1185506E+01 -0.1680582E+00  0.4143854E+00
 -0.1414170E+02 -0.5857700E+01 -0.2310450E+00  0.4414707E+00 -0.1189170E+01 -0.1644172E+00  0.4097113E+00
 -0.1349950E+02 -0.7215620E+01 -0.2310450E+00  0.4346591E+00 -0.1195057E+01 -0.1595025E+00  0.4043358E+00
 -0.1272720E+02 -0.8504060E+01 -0.2310450E+00  0.4285596E+00 -0.1203601E+01 -0.1538524E+00  0.3999910E+00
 -0.1183240E+02 -0.9710600E+01 -0.2310450E+00  0.4220243E+00 -0.1214332E+01 -0.1472710E+00  0.3954943E+00
 -0.1082360E+02 -0.1082360E+02 -0.2310450E+00  0.4145612E+00 -0.1226955E+01 -0.1397511E+00  0.3902956E+00
 -0.9710600E+01 -0.1183240E+02 -0.2310450E+00  0.4041051E+00 -0.1241182E+01 -0.1307999E+00  0.3823510E+00
 -0.8504050E+01 -0.1272720E+02 -0.2310450E+00  0.3934393E+00 -0.1257552E+01 -0.1212370E+00  0.3742941E+00
 -0.7215620E+01 -0.1349950E+02 -0.2310450E+00  0.3760947E+00 -0.1275858E+01 -0.1093236E+00  0.3598550E+00
 -0.5857690E+01 -0.1414170E+02 -0.2310450E+00  0.3551585E+00 -0.1296222E+01 -0.9629684E-01  0.3418545E+00
 -0.4443360E+01 -0.1464780E+02 -0.2310450E+00  0.3261719E+00 -0.1319236E+01 -0.8118936E-01  0.3159057E+00
 -0.2986230E+01 -0.1501280E+02 -0.2310450E+00  0.2700810E+00 -0.1350663E+01 -0.5897483E-01  0.2635635E+00
 -0.1500340E+01 -0.1523320E+02 -0.2310450E+00  0.8815800E-01 -0.1570334E+01 -0.4072519E-04  0.8815799E-01
  0.1825330E-06 -0.1530690E+02 -0.2310450E+00  0.4665270E-01  0.2754366E+01  0.4319854E-01 -0.1761706E-01
  0.1500340E+01 -0.1523320E+02 -0.2310450E+00  0.1394897E+00  0.2226919E+01  0.8509552E-01 -0.1105266E+00
  0.2986230E+01 -0.1501280E+02 -0.2310450E+00  0.2659196E+00  0.2115859E+01  0.1378717E+00 -0.2273865E+00
  0.4443360E+01 -0.1464780E+02 -0.2310450E+00  0.2992433E+00  0.2108653E+01  0.1533013E+00 -0.2569928E+00
  0.5857700E+01 -0.1414170E+02 -0.2310450E+00  0.3155089E+00  0.2112839E+01  0.1627668E+00 -0.2702829E+00
  0.7215620E+01 -0.1349950E+02 -0.2310450E+00  0.3276973E+00  0.2118709E+01  0.1706997E+00 -0.2797270E+00
  0.8504060E+01 -0.1272720E+02 -0.2310450E+00  0.3378428E+00  0.2125446E+01  0.1779233E+00 -0.2871951E+00
  0.9710600E+01 -0.1183240E+02 -0.2310450E+00  0.3427119E+00  0.2134541E+01  0.1831298E+00 -0.2896808E+00
  0.1082360E+02 -0.1082360E+02 -0.2310450E+00  0.3476236E+00  0.2142665E+01  0.1881355E+00 -0.2923135E+00
  0.1183240E+02 -0.9710590E+01 -0.2310450E+00  0.3505226E+00  0.2150146E+01  0.1919042E+00 -0.2933239E+00
  0.1272720E+02 -0.8504060E+01 -0.2310450E+00  0.3529304E+00  0.2155712E+01  0.1948633E+00 -0.2942587E+00
  0.1349950E+02 -0.7215620E+01 -0.2310450E+00  0.3549084E+00  0.2159894E+01  0.1971910E+00 -0.2950859E+00
  0.1414170E+02 -0.5857700E+01 -0.2310450E+00  0.3573534E+00  0.2161721E+01  0.1990919E+00 -0.2967557E+00
  0.1464780E+02 -0.4443350E+01 -0.2310450E+00  0.3589627E+00  0.2161885E+01  0.2000375E+00 -0.2980590E+00
  0.1501280E+02 -0.2986230E+01 -0.2310450E+00  0.3591939E+00  0.2160774E+01  0.1998349E+00 -0.2984733E+00
  0.1523320E+02 -0.1500330E+01 -0.2310450E+00  0.3582873E+00  0.2157606E+01  0.1983862E+00 -0.2983499E+00
  0.1530690E+02  0.0000000E+00 -0.4105000E+00  0.3532886E+00  0.2152837E+01  0.1942133E+00 -0.2951170E+00
  0.1523320E+02  0.1500340E+01 -0.4105000E+00  0.3500393E+00  0.2146380E+01  0.1905351E+00 -0.2936390E+00
  0.1501280E+02  0.2986230E+01 -0.4105000E+00  0.3454901E+00  0.2138924E+01  0.1858927E+00 -0.2912170E+00
  0.1464780E+02  0.4443360E+01 -0.4105000E+00  0.3397817E+00  0.2130508E+01  0.1804042E+00 -0.2879339E+00
  0.1414170E+02  0.5857700E+01 -0.4105000E+00  0.3327149E+00  0.2121245E+01  0.1740331E+00 -0.2835696E+00
  0.1349950E+02  0.7215620E+01 -0.4105000E+00  0.3246721E+00  0.2110506E+01  0.1668448E+00 -0.2785225E+00
  0.1272720E+02  0.8504060E+01 -0.4105000E+00  0.3170740E+00  0.2095685E+01  0.1588909E+00 -0.2743895E+00
  0.1183240E+02  0.9710600E+01 -0.4105000E+00  0.3089675E+00  0.2078134E+01  0.1501125E+00 -0.2700503E+00
  0.1082360E+02  0.1082360E+02 -0.4105000E+00  0.2999591E+00  0.2058013E+01  0.1404313E+00 -0.2650557E+00
  0.9710590E+01  0.1183240E+02 -0.4105000E+00  0.2883658E+00  0.2037872E+01  0.1298444E+00 -0.2574786E+00
  0.8504060E+01  0.1272720E+02 -0.4105000E+00  0.2763109E+00  0.2014458E+01  0.1186064E+00 -0.2495601E+00
  0.7215620E+01  0.1349950E+02 -0.4105000E+00  0.2586200E+00  0.1994819E+01  0.1064041E+00 -0.2357170E+00
  0.5857700E+01  0.1414170E+02 -0.4105000E+00  0.2373062E+00  0.1974894E+01  0.9330633E-01 -0.2181929E+00
  0.4443360E+01  0.1464780E+02 -0.4105000E+00  0.2086012E+00  0.1959940E+01  0.7914259E-01 -0.1930049E+00
  0.2986230E+01  0.1501280E+02 -0.4105000E+00  0.1551971E+00  0.1988361E+01  0.6293797E-01 -0.1418624E+00
  0.1500340E+01  0.1523320E+02 -0.4105000E+00  0.5091774E-01 -0.2506595E+01  0.4099250E-01  0.3020316E-01
 -0.6690860E-06  0.1530690E+02 -0.4105000E+00  0.1370352E+00 -0.1737951E+01  0.2279949E-01  0.1351252E+00
 -0.1500340E+01  0.1523320E+02 -0.4105000E+00  0.2281355E+00 -0.1588418E+01  0.4020009E-02  0.2281001E+00
 -0.2986230E+01  0.1501280E+02 -0.4105000E+00  0.3470002E+00 -0.1510659E+01 -0.2085525E-01  0.3463729E+00
 -0.4443360E+01  0.1464780E+02 -0.4105000E+00  0.3791566E+00 -0.1459946E+01 -0.4194355E-01  0.3768294E+00
 -0.5857700E+01  0.1414170E+02 -0.4105000E+00  0.3952975E+00 -0.1418375E+01 -0.6001861E-01  0.3907146E+00
 -0.7215620E+01  0.1349950E+02 -0.4105000E+00  0.4078074E+00 -0.1382419E+01 -0.7636825E-01  0.4005930E+00
 -0.8504060E+01  0.1272720E+02 -0.4105000E+00  0.4182945E+00 -0.1350965E+01 -0.9121525E-01  0.4082280E+00
 -0.9710590E+01  0.1183240E+02 -0.4105000E+00  0.4242288E+00 -0.1321737E+01 -0.1045691E+00  0.4111391E+00
 -0.1082360E+02  0.1082360E+02 -0.4105000E+00  0.4300509E+00 -0.1296085E+01 -0.1166597E+00  0.4139254E+00