 VARIABLES="X" "Y" "Z" "abs(eta) (m)" "angle(phi) (rad)" "PRE1" "PRE2"
ZONE N=   3200 ,E =    3136 ,F=FEPOINT,ET=QUADRILATERAL
  0.1672760E+02  0.0000000E+00  0.0000000E+00  0.2705828E+00  0.2499345E+01  0.2166696E+00 -0.1620782E+00
  0.1664710E+02  0.1639590E+01  0.0000000E+00  0.2760525E+00  0.2504603E+01  0.2219158E+00 -0.1641901E+00
  0.1640620E+02  0.3263390E+01  0.0000000E+00  0.2805776E+00  0.2507937E+01  0.2261086E+00 -0.1661285E+00
  0.1600730E+02  0.4855770E+01  0.0000000E+00  0.2848974E+00  0.2507499E+01  0.2295158E+00 -0.1687869E+00
  0.1545430E+02  0.6401380E+01  0.0000000E+00  0.2896586E+00  0.2501483E+01  0.2323150E+00 -0.1730082E+00
  0.1475240E+02  0.7885340E+01  0.0000000E+00  0.2942871E+00  0.2492104E+01  0.2343682E+00 -0.1779788E+00
  0.1390850E+02  0.9293360E+01  0.0000000E+00  0.2967776E+00  0.2483240E+01  0.2347514E+00 -0.1815729E+00
  0.1293060E+02  0.1061190E+02  0.0000000E+00  0.2947694E+00  0.2477820E+01  0.2321821E+00 -0.1816053E+00
  0.1182820E+02  0.1182820E+02  0.0000000E+00  0.2924066E+00  0.2470211E+01  0.2289435E+00 -0.1818969E+00
  0.1061190E+02  0.1293060E+02  0.0000000E+00  0.2889653E+00  0.2461974E+01  0.2247607E+00 -0.1816137E+00
  0.9293360E+01  0.1390850E+02  0.0000000E+00  0.2818332E+00  0.2455837E+01  0.2181223E+00 -0.1784731E+00
  0.7885330E+01  0.1475240E+02  0.0000000E+00  0.2749864E+00  0.2447659E+01  0.2113921E+00 -0.1758719E+00
  0.6401380E+01  0.1545430E+02  0.0000000E+00  0.2640465E+00  0.2442758E+01  0.2021520E+00 -0.1698679E+00
  0.4855770E+01  0.1600730E+02  0.0000000E+00  0.2447805E+00  0.2447245E+01  0.1881068E+00 -0.1566312E+00
  0.3263390E+01  0.1640620E+02  0.0000000E+00  0.2147295E+00  0.2466563E+01  0.1676368E+00 -0.1341889E+00
  0.1639590E+01  0.1664710E+02  0.0000000E+00  0.1602901E+00  0.2535122E+01  0.1317047E+00 -0.9136070E-01
 -0.7311870E-06  0.1672760E+02  0.0000000E+00  0.9212964E-01  0.2745253E+01  0.8498777E-01 -0.3556612E-01
 -0.1639590E+01  0.1664710E+02  0.0000000E+00  0.4563342E-01 -0.2204342E+01  0.2701525E-01  0.3677751E-01
 -0.3263390E+01  0.1640620E+02  0.0000000E+00  0.1261029E+00 -0.1271228E+01 -0.3721390E-01  0.1204868E+00
 -0.4855770E+01  0.1600730E+02  0.0000000E+00  0.1976444E+00 -0.1131379E+01 -0.8408036E-01  0.1788681E+00
 -0.6401380E+01  0.1545430E+02  0.0000000E+00  0.2450283E+00 -0.1072949E+01 -0.1170096E+00  0.2152850E+00
 -0.7885340E+01  0.1475240E+02  0.0000000E+00  0.2776522E+00 -0.1035068E+01 -0.1417324E+00  0.2387524E+00
 -0.9293360E+01  0.1390850E+02  0.0000000E+00  0.3015835E+00 -0.1005751E+01 -0.1614841E+00  0.2547067E+00
 -0.1061190E+02  0.1293060E+02  0.0000000E+00  0.3231595E+00 -0.9811888E+00 -0.1796880E+00  0.2685969E+00
 -0.1182820E+02  0.1182820E+02  0.0000000E+00  0.3388013E+00 -0.9604846E+00 -0.1941748E+00  0.2776373E+00
 -0.1293060E+02  0.1061190E+02  0.0000000E+00  0.3526185E+00 -0.9430342E+00 -0.2071052E+00  0.2853896E+00
 -0.1390850E+02  0.9293360E+01  0.0000000E+00  0.3661824E+00 -0.9293343E+00 -0.2191116E+00  0.2933933E+00
 -0.1475240E+02  0.7885330E+01  0.0000000E+00  0.3732567E+00 -0.9169946E+00 -0.2270179E+00  0.2962826E+00
 -0.1545430E+02  0.6401370E+01  0.0000000E+00  0.3769414E+00 -0.9066527E+00 -0.2323410E+00  0.2968206E+00
 -0.1600730E+02  0.4855770E+01  0.0000000E+00  0.3801160E+00 -0.8997591E+00 -0.2363556E+00  0.2976982E+00
 -0.1640620E+02  0.3263390E+01  0.0000000E+00  0.3839554E+00 -0.8974490E+00 -0.2394370E+00  0.3001528E+00
 -0.1664710E+02  0.1639590E+01  0.0000000E+00  0.3879025E+00 -0.8992420E+00 -0.2413543E+00  0.3036716E+00
 -0.1672760E+02 -0.1462370E-05  0.0000000E+00  0.3903392E+00 -0.9041281E+00 -0.2413745E+00  0.3067622E+00
 -0.1664710E+02 -0.1639590E+01  0.0000000E+00  0.3912593E+00 -0.9122085E+00 -0.2394509E+00  0.3094302E+00
 -0.1640620E+02 -0.3263400E+01  0.0000000E+00  0.3908999E+00 -0.9239089E+00 -0.2355976E+00  0.3119239E+00
 -0.1600730E+02 -0.4855770E+01  0.0000000E+00  0.3901933E+00 -0.9402413E+00 -0.2300553E+00  0.3151593E+00
 -0.1545430E+02 -0.6401380E+01  0.0000000E+00  0.3899168E+00 -0.9624345E+00 -0.2228468E+00  0.3199600E+00
 -0.1475240E+02 -0.7885340E+01  0.0000000E+00  0.3893261E+00 -0.9897433E+00 -0.2137028E+00  0.3254319E+00
 -0.1390850E+02 -0.9293360E+01  0.0000000E+00  0.3865799E+00 -0.1019863E+01 -0.2023679E+00  0.3293801E+00
 -0.1293060E+02 -0.1061190E+02  0.0000000E+00  0.3798500E+00 -0.1050790E+01 -0.1887421E+00  0.3296399E+00
 -0.1182820E+02 -0.1182820E+02  0.0000000E+00  0.3728619E+00 -0.1086820E+01 -0.1734935E+00  0.3300394E+00
 -0.1061190E+02 -0.1293060E+02  0.0000000E+00  0.3648773E+00 -0.1128076E+01 -0.1563132E+00  0.3296994E+00
 -0.9293350E+01 -0.1390850E+02  0.0000000E+00  0.3538564E+00 -0.1173528E+01 -0.1369073E+00  0.3262986E+00
 -0.7885340E+01 -0.1475240E+02  0.0000000E+00  0.3430576E+00 -0.1228668E+01 -0.1150933E+00  0.3231749E+00
 -0.6401370E+01 -0.1545430E+02  0.0000000E+00  0.3290241E+00 -0.1292258E+01 -0.9046531E-01  0.3163429E+00
 -0.4855760E+01 -0.1600730E+02  0.0000000E+00  0.3083290E+00 -0.1366672E+01 -0.6250125E-01  0.3019278E+00
 -0.3263390E+01 -0.1640620E+02  0.0000000E+00  0.2793134E+00 -0.1464997E+01 -0.2949595E-01  0.2777517E+00
 -0.1639590E+01 -0.1664710E+02  0.0000000E+00  0.2329425E+00 -0.1590759E+01  0.4649879E-02  0.2328961E+00
  0.1994750E-06 -0.1672760E+02  0.0000000E+00  0.1784399E+00 -0.1742072E+01  0.3041319E-01  0.1758290E+00
  0.1639600E+01 -0.1664710E+02  0.0000000E+00  0.1132508E+00 -0.1993732E+01  0.4648256E-01  0.1032720E+00
  0.3263390E+01 -0.1640620E+02  0.0000000E+00  0.5993908E-01 -0.2797718E+01  0.5642997E-01  0.2020772E-01
  0.4855770E+01 -0.1600730E+02  0.0000000E+00  0.7739552E-01  0.2635817E+01  0.6770553E-01 -0.3749705E-01
  0.6401380E+01 -0.1545430E+02  0.0000000E+00  0.1098079E+00  0.2407556E+01  0.8152978E-01 -0.7355730E-01
  0.7885340E+01 -0.1475240E+02  0.0000000E+00  0.1362603E+00  0.2351268E+01  0.9587477E-01 -0.9682404E-01
  0.9293360E+01 -0.1390850E+02  0.0000000E+00  0.1577633E+00  0.2346103E+01  0.1104241E+00 -0.1126756E+00
  0.1061190E+02 -0.1293060E+02  0.0000000E+00  0.1775671E+00  0.2348830E+01  0.1246309E+00 -0.1264801E+00
  0.1182820E+02 -0.1182820E+02  0.0000000E+00  0.1936517E+00  0.2366998E+01  0.1384038E+00 -0.1354451E+00
  0.1293060E+02 -0.1061190E+02  0.0000000E+00  0.2083129E+00  0.2384392E+01  0.1513938E+00 -0.1430879E+00
  0.1390850E+02 -0.9293360E+01  0.0000000E+00  0.2225302E+00  0.2396254E+01  0.1635281E+00 -0.1509246E+00
  0.1475240E+02 -0.7885330E+01  0.0000000E+00  0.2328435E+00  0.2420774E+01  0.1749274E+00 -0.1536766E+00
  0.1545430E+02 -0.6401380E+01  0.0000000E+00  0.2410551E+00  0.2448314E+01  0.1854087E+00 -0.1540493E+00
  0.1600730E+02 -0.4855760E+01  0.0000000E+00  0.2487472E+00  0.2470729E+01  0.1948399E+00 -0.1546369E+00
  0.1640620E+02 -0.3263390E+01  0.0000000E+00  0.2565739E+00  0.2484911E+01  0.2032123E+00 -0.1566364E+00
  0.1664710E+02 -0.1639590E+01  0.0000000E+00  0.2640764E+00  0.2492769E+01  0.2104148E+00 -0.1595681E+00
  0.1672760E+02  0.0000000E+00 -0.2568960E-01  0.2702451E+00  0.2499271E+01  0.2163872E+00 -0.1618918E+00
  0.1664710E+02  0.1639590E+01 -0.2568960E-01  0.2757111E+00  0.2504539E+01  0.2216309E+00 -0.1640010E+00
  0.1640620E+02  0.3263390E+01 -0.2568960E-01  0.2802293E+00  0.2507873E+01  0.2258173E+00 -0.1659366E+00
  0.1600730E+02  0.4855770E+01 -0.2568960E-01  0.2845384E+00  0.2507438E+01  0.2292164E+00 -0.1685882E+00
  0.1545430E+02  0.6401380E+01 -0.2568960E-01  0.2892835E+00  0.2501455E+01  0.2320092E+00 -0.1727908E+00
  0.1475240E+02  0.7885340E+01 -0.2568960E-01  0.2938871E+00  0.2492102E+01  0.2340493E+00 -0.1777374E+00
  0.1390850E+02  0.9293360E+01 -0.2568960E-01  0.2963670E+00  0.2483253E+01  0.2344290E+00 -0.1813186E+00
  0.1293060E+02  0.1061190E+02 -0.2568960E-01  0.2943765E+00  0.2477813E+01  0.2318712E+00 -0.1813649E+00
  0.1182820E+02  0.1182820E+02 -0.2568960E-01  0.2920210E+00  0.2470193E+01  0.2286384E+00 -0.1816610E+00
  0.1061190E+02  0.1293060E+02 -0.2568960E-01  0.2885835E+00  0.2461959E+01  0.2244611E+00 -0.1813770E+00
  0.9293360E+01  0.1390850E+02 -0.2568960E-01  0.2814798E+00  0.2455804E+01  0.2178428E+00 -0.1782565E+00
  0.7885330E+01  0.1475240E+02 -0.2568960E-01  0.2746367E+00  0.2447634E+01  0.2111188E+00 -0.1756535E+00
  0.6401380E+01  0.1545430E+02 -0.2568960E-01  0.2637141E+00  0.2442744E+01  0.2018951E+00 -0.1696570E+00
  0.4855770E+01  0.1600730E+02 -0.2568960E-01  0.2444951E+00  0.2447193E+01  0.1878794E+00 -0.1564582E+00
  0.3263390E+01  0.1640620E+02 -0.2568960E-01  0.2144616E+00  0.2466522E+01  0.1674221E+00 -0.1340284E+00
  0.1639590E+01  0.1664710E+02 -0.2568960E-01  0.1601202E+00  0.2535007E+01  0.1315546E+00 -0.9127901E-01
 -0.7311870E-06  0.1672760E+02 -0.2568960E-01  0.9203392E-01  0.2745063E+01  0.8489272E-01 -0.3554530E-01
 -0.1639590E+01  0.1664710E+02 -0.2568960E-01  0.4556330E-01 -0.2204839E+01  0.2699200E-01  0.3670757E-01
 -0.3263390E+01  0.1640620E+02 -0.2568960E-01  0.1259300E+00 -0.1271242E+01 -0.3716118E-01  0.1203221E+00
 -0.4855770E+01  0.1600730E+02 -0.2568960E-01  0.1974098E+00 -0.1131361E+01 -0.8398382E-01  0.1786543E+00
 -0.6401380E+01  0.1545430E+02 -0.2568960E-01  0.2447123E+00 -0.1072958E+01 -0.1168568E+00  0.2150084E+00
 -0.7885340E+01  0.1475240E+02 -0.2568960E-01  0.2772895E+00 -0.1035073E+01 -0.1415461E+00  0.2384411E+00
 -0.9293360E+01  0.1390850E+02 -0.2568960E-01  0.3011982E+00 -0.1005759E+01 -0.1612757E+00  0.2543826E+00
 -0.1061190E+02  0.1293060E+02 -0.2568960E-01  0.3227243E+00 -0.9811974E+00 -0.1794436E+00  0.2682367E+00
 -0.1182820E+02  0.1182820E+02 -0.2568960E-01  0.3383521E+00 -0.9604931E+00 -0.1939150E+00  0.2772709E+00
 -0.1293060E+02  0.1061190E+02 -0.2568960E-01  0.3521459E+00 -0.9430435E+00 -0.2068250E+00  0.2850091E+00
 -0.1390850E+02  0.9293360E+01 -0.2568960E-01  0.3656668E+00 -0.9293383E+00 -0.2188020E+00  0.2929811E+00
 -0.1475240E+02  0.7885330E+01 -0.2568960E-01  0.3727411E+00 -0.9170059E+00 -0.2267009E+00  0.2958760E+00
 -0.1545430E+02  0.6401370E+01 -0.2568960E-01  0.3764429E+00 -0.9066659E+00 -0.2320299E+00  0.2964311E+00
 -0.1600730E+02  0.4855770E+01 -0.2568960E-01  0.3796286E+00 -0.8997862E+00 -0.2360445E+00  0.2973228E+00
 -0.1640620E+02  0.3263390E+01 -0.2568960E-01  0.3834681E+00 -0.8974779E+00 -0.2391244E+00  0.2997787E+00
 -0.1664710E+02  0.1639590E+01 -0.2568960E-01  0.3874059E+00 -0.8992738E+00 -0.2410357E+00  0.3032905E+00
 -0.1672760E+02 -0.1462370E-05 -0.2568960E-01  0.3898380E+00 -0.9041614E+00 -0.2410543E+00  0.3063764E+00
 -0.1664710E+02 -0.1639590E+01 -0.2568960E-01  0.3907559E+00 -0.9122465E+00 -0.2391311E+00  0.3090412E+00
 -0.1640620E+02 -0.3263400E+01 -0.2568960E-01  0.3903980E+00 -0.9239446E+00 -0.2352840E+00  0.3115318E+00
 -0.1600730E+02 -0.4855770E+01 -0.2568960E-01  0.3896879E+00 -0.9402742E+00 -0.2297470E+00  0.3147586E+00
 -0.1545430E+02 -0.6401380E+01 -0.2568960E-01  0.3893994E+00 -0.9624557E+00 -0.2225443E+00  0.3195401E+00
 -0.1475240E+02 -0.7885340E+01 -0.2568960E-01  0.3887930E+00 -0.9897481E+00 -0.2134086E+00  0.3249873E+00
 -0.1390850E+02 -0.9293360E+01 -0.2568960E-01  0.3860424E+00 -0.1019861E+01 -0.2020870E+00  0.3289218E+00
 -0.1293060E+02 -0.1061190E+02 -0.2568960E-01  0.3793356E+00 -0.1050800E+01 -0.1884832E+00  0.3291953E+00
 -0.1182820E+02 -0.1182820E+02 -0.2568960E-01  0.3723612E+00 -0.1086835E+01 -0.1732557E+00  0.3295988E+00
 -0.1061190E+02 -0.1293060E+02 -0.2568960E-01  0.3643866E+00 -0.1128094E+01 -0.1560971E+00  0.3292587E+00
 -0.9293350E+01 -0.1390850E+02 -0.2568960E-01  0.3533961E+00 -0.1173559E+01 -0.1367192E+00  0.3258783E+00
 -0.7885340E+01 -0.1475240E+02 -0.2568960E-01  0.3426062E+00 -0.1228699E+01 -0.1149318E+00  0.3227533E+00
 -0.6401370E+01 -0.1545430E+02 -0.2568960E-01  0.3285924E+00 -0.1292279E+01 -0.9033993E-01  0.3159299E+00
 -0.4855760E+01 -0.1600730E+02 -0.2568960E-01  0.3079450E+00 -0.1366715E+01 -0.6241049E-01  0.3015544E+00
 -0.3263390E+01 -0.1640620E+02 -0.2568960E-01  0.2789510E+00 -0.1465037E+01 -0.2944676E-01  0.2773924E+00
 -0.1639590E+01 -0.1664710E+02 -0.2568960E-01  0.2326639E+00 -0.1590851E+01  0.4665717E-02  0.2326171E+00
  0.1994750E-06 -0.1672760E+02 -0.2568960E-01  0.1782229E+00 -0.1742151E+01  0.3039019E-01  0.1756128E+00
  0.1639600E+01 -0.1664710E+02 -0.2568960E-01  0.1131182E+00 -0.1993834E+01  0.4643868E-01  0.1031464E+00
  0.3263390E+01 -0.1640620E+02 -0.2568960E-01  0.5986514E-01 -0.2797818E+01  0.5636237E-01  0.2017716E-01
  0.4855770E+01 -0.1600730E+02 -0.2568960E-01  0.7731109E-01  0.2635482E+01  0.6761911E-01 -0.3747880E-01
  0.6401380E+01 -0.1545430E+02 -0.2568960E-01  0.1096738E+00  0.2407449E+01  0.8142234E-01 -0.7347611E-01
  0.7885340E+01 -0.1475240E+02 -0.2568960E-01  0.1360907E+00  0.2351207E+01  0.9574953E-01 -0.9670932E-01
  0.9293360E+01 -0.1390850E+02 -0.2568960E-01  0.1575695E+00  0.2346012E+01  0.1102782E+00 -0.1125472E+00
  0.1061190E+02 -0.1293060E+02 -0.2568960E-01  0.1773346E+00  0.2348818E+01  0.1244661E+00 -0.1263161E+00
  0.1182820E+02 -0.1182820E+02 -0.2568960E-01  0.1934001E+00  0.2366956E+01  0.1382183E+00 -0.1352749E+00
  0.1293060E+02 -0.1061190E+02 -0.2568960E-01  0.2080393E+00  0.2384363E+01  0.1511909E+00 -0.1429043E+00
  0.1390850E+02 -0.9293360E+01 -0.2568960E-01  0.2222228E+00  0.2396296E+01  0.1633086E+00 -0.1507093E+00
  0.1475240E+02 -0.7885330E+01 -0.2568960E-01  0.2325293E+00  0.2420794E+01  0.1746943E+00 -0.1534659E+00
  0.1545430E+02 -0.6401380E+01 -0.2568960E-01  0.2407436E+00  0.2448276E+01  0.1851633E+00 -0.1538572E+00
  0.1600730E+02 -0.4855760E+01 -0.2568960E-01  0.2484366E+00  0.2470653E+01  0.1945849E+00 -0.1544586E+00
  0.1640620E+02 -0.3263390E+01 -0.2568960E-01  0.2562553E+00  0.2484818E+01  0.2029455E+00 -0.1564606E+00
  0.1664710E+02 -0.1639590E+01 -0.2568960E-01  0.2637484E+00  0.2492691E+01  0.2101410E+00 -0.1593863E+00
  0.1672760E+02  0.0000000E+00 -0.1027320E+00  0.2692630E+00  0.2498975E+01  0.2155530E+00 -0.1613676E+00
  0.1664710E+02  0.1639590E+01 -0.1027320E+00  0.2747084E+00  0.2504251E+01  0.2207779E+00 -0.1634682E+00
  0.1640620E+02  0.3263390E+01 -0.1027320E+00  0.2792129E+00  0.2507601E+01  0.2249533E+00 -0.1653960E+00
  0.1600730E+02  0.4855770E+01 -0.1027320E+00  0.2834941E+00  0.2507201E+01  0.2283354E+00 -0.1680235E+00
  0.1545430E+02  0.6401380E+01 -0.1027320E+00  0.2881823E+00  0.2501295E+01  0.2310985E+00 -0.1721700E+00
  0.1475240E+02  0.7885340E+01 -0.1027320E+00  0.2927152E+00  0.2492039E+01  0.2331049E+00 -0.1770431E+00
  0.1390850E+02  0.9293360E+01 -0.1027320E+00  0.2951569E+00  0.2483240E+01  0.2334693E+00 -0.1805814E+00
  0.1293060E+02  0.1061190E+02 -0.1027320E+00  0.2932211E+00  0.2477749E+01  0.2309497E+00 -0.1806677E+00
  0.1182820E+02  0.1182820E+02 -0.1027320E+00  0.2908906E+00  0.2470123E+01  0.2277406E+00 -0.1809740E+00
  0.1061190E+02  0.1293060E+02 -0.1027320E+00  0.2874578E+00  0.2461892E+01  0.2235734E+00 -0.1806847E+00
  0.9293360E+01  0.1390850E+02 -0.1027320E+00  0.2804337E+00  0.2455679E+01  0.2170111E+00 -0.1776211E+00
  0.7885330E+01  0.1475240E+02 -0.1027320E+00  0.2735967E+00  0.2447535E+01  0.2103020E+00 -0.1750092E+00
  0.6401380E+01  0.1545430E+02 -0.1027320E+00  0.2627119E+00  0.2442651E+01  0.2011121E+00 -0.1690309E+00
  0.4855770E+01  0.1600730E+02 -0.1027320E+00  0.2436370E+00  0.2447029E+01  0.1871944E+00 -0.1559398E+00
  0.3263390E+01  0.1640620E+02 -0.1027320E+00  0.2136730E+00  0.2466404E+01  0.1667908E+00 -0.1335552E+00
  0.1639590E+01  0.1664710E+02 -0.1027320E+00  0.1596058E+00  0.2534687E+01  0.1311029E+00 -0.9102771E-01
 -0.7311870E-06  0.1672760E+02 -0.1027320E+00  0.9173624E-01  0.2744541E+01  0.8459965E-01 -0.3547446E-01
 -0.1639590E+01  0.1664710E+02 -0.1027320E+00  0.4535688E-01 -0.2206089E+01  0.2691535E-01  0.3650768E-01
 -0.3263390E+01  0.1640620E+02 -0.1027320E+00  0.1254327E+00 -0.1271248E+01 -0.3701375E-01  0.1198471E+00
 -0.4855770E+01  0.1600730E+02 -0.1027320E+00  0.1967051E+00 -0.1131306E+01 -0.8369380E-01  0.1780120E+00
 -0.6401380E+01  0.1545430E+02 -0.1027320E+00  0.2437703E+00 -0.1072967E+01 -0.1164051E+00  0.2141818E+00
 -0.7885340E+01  0.1475240E+02 -0.1027320E+00  0.2762083E+00 -0.1035096E+01 -0.1409886E+00  0.2375147E+00
 -0.9293360E+01  0.1390850E+02 -0.1027320E+00  0.3000556E+00 -0.1005779E+01 -0.1606589E+00  0.2534207E+00
 -0.1061190E+02  0.1293060E+02 -0.1027320E+00  0.3214365E+00 -0.9812211E+00 -0.1787212E+00  0.2671706E+00
 -0.1182820E+02  0.1182820E+02 -0.1027320E+00  0.3370267E+00 -0.9605266E+00 -0.1931462E+00  0.2761912E+00
 -0.1293060E+02  0.1061190E+02 -0.1027320E+00  0.3507549E+00 -0.9430801E+00 -0.2059976E+00  0.2838908E+00
 -0.1390850E+02  0.9293360E+01 -0.1027320E+00  0.3641514E+00 -0.9293616E+00 -0.2178884E+00  0.2917720E+00
 -0.1475240E+02  0.7885330E+01 -0.1027320E+00  0.3712268E+00 -0.9170370E+00 -0.2257708E+00  0.2946810E+00
 -0.1545430E+02  0.6401370E+01 -0.1027320E+00  0.3749819E+00 -0.9067328E+00 -0.2311096E+00  0.2952961E+00
 -0.1600730E+02  0.4855770E+01 -0.1027320E+00  0.3782057E+00 -0.8998786E+00 -0.2351324E+00  0.2962302E+00
 -0.1640620E+02  0.3263390E+01 -0.1027320E+00  0.3820444E+00 -0.8975903E+00 -0.2382030E+00  0.2986925E+00
 -0.1664710E+02  0.1639590E+01 -0.1027320E+00  0.3859571E+00 -0.8993952E+00 -0.2400976E+00  0.3021854E+00
 -0.1672760E+02 -0.1462370E-05 -0.1027320E+00  0.3883727E+00 -0.9042885E+00 -0.2401095E+00  0.3052553E+00
 -0.1664710E+02 -0.1639590E+01 -0.1027320E+00  0.3892844E+00 -0.9123808E+00 -0.2381893E+00  0.3079094E+00
 -0.1640620E+02 -0.3263400E+01 -0.1027320E+00  0.3889291E+00 -0.9240801E+00 -0.2343566E+00  0.3103914E+00
 -0.1600730E+02 -0.4855770E+01 -0.1027320E+00  0.3882072E+00 -0.9403976E+00 -0.2288353E+00  0.3135909E+00
 -0.1545430E+02 -0.6401380E+01 -0.1027320E+00  0.3878811E+00 -0.9625394E+00 -0.2216500E+00  0.3183128E+00
 -0.1475240E+02 -0.7885340E+01 -0.1027320E+00  0.3872283E+00 -0.9897739E+00 -0.2125414E+00  0.3236848E+00
 -0.1390850E+02 -0.9293360E+01 -0.1027320E+00  0.3844625E+00 -0.1019856E+01 -0.2012619E+00  0.3275746E+00
 -0.1293060E+02 -0.1061190E+02 -0.1027320E+00  0.3778212E+00 -0.1050840E+01 -0.1877175E+00  0.3278887E+00
 -0.1182820E+02 -0.1182820E+02 -0.1027320E+00  0.3708839E+00 -0.1086892E+01 -0.1725495E+00  0.3283010E+00
 -0.1061190E+02 -0.1293060E+02 -0.1027320E+00  0.3629353E+00 -0.1128145E+01 -0.1554585E+00  0.3279554E+00
 -0.9293350E+01 -0.1390850E+02 -0.1027320E+00  0.3520311E+00 -0.1173658E+01 -0.1361590E+00  0.3246330E+00
 -0.7885340E+01 -0.1475240E+02 -0.1027320E+00  0.3412672E+00 -0.1228775E+01 -0.1144582E+00  0.3215006E+00
 -0.6401370E+01 -0.1545430E+02 -0.1027320E+00  0.3273072E+00 -0.1292340E+01 -0.8996755E-01  0.3146996E+00
 -0.4855760E+01 -0.1600730E+02 -0.1027320E+00  0.3067963E+00 -0.1366821E+01 -0.6214587E-01  0.3004361E+00
 -0.3263390E+01 -0.1640620E+02 -0.1027320E+00  0.2778755E+00 -0.1465125E+01 -0.2930893E-01  0.2763256E+00
 -0.1639590E+01 -0.1664710E+02 -0.1027320E+00  0.2318242E+00 -0.1591081E+01  0.4702227E-02  0.2317765E+00
  0.1994750E-06 -0.1672760E+02 -0.1027320E+00  0.1775651E+00 -0.1742355E+01  0.3031368E-01  0.1749585E+00
  0.1639600E+01 -0.1664710E+02 -0.1027320E+00  0.1127119E+00 -0.1994120E+01  0.4630125E-01  0.1027626E+00
  0.3263390E+01 -0.1640620E+02 -0.1027320E+00  0.5963491E-01 -0.2798345E+01  0.5615621E-01  0.2006993E-01
  0.4855770E+01 -0.1600730E+02 -0.1027320E+00  0.7705703E-01  0.2634510E+01  0.6736056E-01 -0.3742114E-01
  0.6401380E+01 -0.1545430E+02 -0.1027320E+00  0.1092750E+00  0.2407132E+01  0.8110305E-01 -0.7323463E-01
  0.7885340E+01 -0.1475240E+02 -0.1027320E+00  0.1355871E+00  0.2351013E+01  0.9537656E-01 -0.9637000E-01
  0.9293360E+01 -0.1390850E+02 -0.1027320E+00  0.1569959E+00  0.2345704E+01  0.1098422E+00 -0.1121713E+00
  0.1061190E+02 -0.1293060E+02 -0.1027320E+00  0.1766472E+00  0.2348734E+01  0.1239732E+00 -0.1258368E+00
  0.1182820E+02 -0.1182820E+02 -0.1027320E+00  0.1926605E+00  0.2366784E+01  0.1376665E+00 -0.1347813E+00
  0.1293060E+02 -0.1061190E+02 -0.1027320E+00  0.2072331E+00  0.2384218E+01  0.1505843E+00 -0.1423726E+00
  0.1390850E+02 -0.9293360E+01 -0.1027320E+00  0.2213223E+00  0.2396370E+01  0.1626579E+00 -0.1500866E+00
  0.1475240E+02 -0.7885330E+01 -0.1027320E+00  0.2316072E+00  0.2420781E+01  0.1739996E+00 -0.1528595E+00
  0.1545430E+02 -0.6401380E+01 -0.1027320E+00  0.2398307E+00  0.2448079E+01  0.1844310E+00 -0.1533100E+00
  0.1600730E+02 -0.4855760E+01 -0.1027320E+00  0.2475248E+00  0.2470325E+01  0.1938202E+00 -0.1539554E+00
  0.1640620E+02 -0.3263390E+01 -0.1027320E+00  0.2553246E+00  0.2484457E+01  0.2021520E+00 -0.1559654E+00
  0.1664710E+02 -0.1639590E+01 -0.1027320E+00  0.2627893E+00  0.2492368E+01  0.2093257E+00 -0.1588742E+00
  0.1672760E+02  0.0000000E+00 -0.2310450E+00  0.2676324E+00  0.2498477E+01  0.2141678E+00 -0.1604969E+00
  0.1664710E+02  0.1639590E+01 -0.2310450E+00  0.2730489E+00  0.2503778E+01  0.2193673E+00 -0.1625845E+00
  0.1640620E+02  0.3263390E+01 -0.2310450E+00  0.2775254E+00  0.2507140E+01  0.2235179E+00 -0.1644996E+00
  0.1600730E+02  0.4855770E+01 -0.2310450E+00  0.2817608E+00  0.2506799E+01  0.2268720E+00 -0.1670875E+00
  0.1545430E+02  0.6401380E+01 -0.2310450E+00  0.2863559E+00  0.2501026E+01  0.2295878E+00 -0.1711406E+00
  0.1475240E+02  0.7885340E+01 -0.2310450E+00  0.2907707E+00  0.2491932E+01  0.2315376E+00 -0.1758918E+00
  0.1390850E+02  0.9293360E+01 -0.2310450E+00  0.2931494E+00  0.2483212E+01  0.2318765E+00 -0.1793595E+00
  0.1293060E+02  0.1061190E+02 -0.2310450E+00  0.2913025E+00  0.2477631E+01  0.2294172E+00 -0.1795128E+00
  0.1182820E+02  0.1182820E+02 -0.2310450E+00  0.2890120E+00  0.2469989E+01  0.2262458E+00 -0.1798355E+00
  0.1061190E+02  0.1293060E+02 -0.2310450E+00  0.2855899E+00  0.2461770E+01  0.2220987E+00 -0.1795376E+00
  0.9293360E+01  0.1390850E+02 -0.2310450E+00  0.2786978E+00  0.2455468E+01  0.2156305E+00 -0.1765671E+00
  0.7885330E+01  0.1475240E+02 -0.2310450E+00  0.2718695E+00  0.2447361E+01  0.2089441E+00 -0.1739407E+00
  0.6401380E+01  0.1545430E+02 -0.2310450E+00  0.2610488E+00  0.2442511E+01  0.1998154E+00 -0.1679889E+00
  0.4855770E+01  0.1600730E+02 -0.2310450E+00  0.2422096E+00  0.2446739E+01  0.1860527E+00 -0.1550803E+00
  0.3263390E+01  0.1640620E+02 -0.2310450E+00  0.2123515E+00  0.2466194E+01  0.1657313E+00 -0.1327640E+00
  0.1639590E+01  0.1664710E+02 -0.2310450E+00  0.1587440E+00  0.2534172E+01  0.1303483E+00 -0.9060331E-01
 -0.7311870E-06  0.1672760E+02 -0.2310450E+00  0.9122451E-01  0.2743743E+01  0.8409953E-01 -0.3534376E-01
 -0.1639590E+01  0.1664710E+02 -0.2310450E+00  0.4503443E-01 -0.2206956E+01  0.2675542E-01  0.3622495E-01
 -0.3263390E+01  0.1640620E+02 -0.2310450E+00  0.1245985E+00 -0.1271275E+01 -0.3676435E-01  0.1190512E+00
 -0.4855770E+01  0.1600730E+02 -0.2310450E+00  0.1955315E+00 -0.1131210E+01 -0.8321139E-01  0.1769418E+00
 -0.6401380E+01  0.1545430E+02 -0.2310450E+00  0.2421998E+00 -0.1072972E+01 -0.1156540E+00  0.2128025E+00
 -0.7885340E+01  0.1475240E+02 -0.2310450E+00  0.2744148E+00 -0.1035128E+01 -0.1400657E+00  0.2359768E+00
 -0.9293360E+01  0.1390850E+02 -0.2310450E+00  0.2981563E+00 -0.1005810E+01 -0.1596341E+00  0.2518217E+00
 -0.1061190E+02  0.1293060E+02 -0.2310450E+00  0.3192973E+00 -0.9812647E+00 -0.1775203E+00  0.2654003E+00
 -0.1182820E+02  0.1182820E+02 -0.2310450E+00  0.3348247E+00 -0.9605806E+00 -0.1918693E+00  0.2743970E+00
 -0.1293060E+02  0.1061190E+02 -0.2310450E+00  0.3484437E+00 -0.9431409E+00 -0.2046231E+00  0.2820327E+00
 -0.1390850E+02  0.9293360E+01 -0.2310450E+00  0.3616333E+00 -0.9293947E+00 -0.2163721E+00  0.2897615E+00
 -0.1475240E+02  0.7885330E+01 -0.2310450E+00  0.3687131E+00 -0.9170926E+00 -0.2242258E+00  0.2926981E+00
 -0.1545430E+02  0.6401370E+01 -0.2310450E+00  0.3725544E+00 -0.9068424E+00 -0.2295813E+00  0.2934096E+00
 -0.1600730E+02  0.4855770E+01 -0.2310450E+00  0.3758405E+00 -0.9000453E+00 -0.2336129E+00  0.2944166E+00
 -0.1640620E+02  0.3263390E+01 -0.2310450E+00  0.3796788E+00 -0.8977833E+00 -0.2366708E+00  0.2968887E+00
 -0.1664710E+02  0.1639590E+01 -0.2310450E+00  0.3835524E+00 -0.8995963E+00 -0.2385413E+00  0.3003506E+00
 -0.1672760E+02 -0.1462370E-05 -0.2310450E+00  0.3859442E+00 -0.9045019E+00 -0.2385433E+00  0.3033975E+00
 -0.1664710E+02 -0.1639590E+01 -0.2310450E+00  0.3868472E+00 -0.9126042E+00 -0.2366297E+00  0.3060346E+00
 -0.1640620E+02 -0.3263400E+01 -0.2310450E+00  0.3864928E+00 -0.9243070E+00 -0.2328186E+00  0.3084999E+00
 -0.1600730E+02 -0.4855770E+01 -0.2310450E+00  0.3857551E+00 -0.9406010E+00 -0.2273265E+00  0.3116563E+00
 -0.1545430E+02 -0.6401380E+01 -0.2310450E+00  0.3853694E+00 -0.9626759E+00 -0.2201715E+00  0.3162816E+00
 -0.1475240E+02 -0.7885340E+01 -0.2310450E+00  0.3846350E+00 -0.9898160E+00 -0.2111045E+00  0.3215261E+00
 -0.1390850E+02 -0.9293360E+01 -0.2310450E+00  0.3818460E+00 -0.1019846E+01 -0.1998951E+00  0.3253433E+00
 -0.1293060E+02 -0.1061190E+02 -0.2310450E+00  0.3753133E+00 -0.1050899E+01 -0.1864524E+00  0.3257231E+00
 -0.1182820E+02 -0.1182820E+02 -0.2310450E+00  0.3684381E+00 -0.1086978E+01 -0.1713836E+00  0.3261507E+00
 -0.1061190E+02 -0.1293060E+02 -0.2310450E+00  0.3605317E+00 -0.1128230E+01 -0.1544014E+00  0.3257965E+00
 -0.9293350E+01 -0.1390850E+02 -0.2310450E+00  0.3497718E+00 -0.1173812E+01 -0.1352355E+00  0.3225704E+00
 -0.7885340E+01 -0.1475240E+02 -0.2310450E+00  0.3390510E+00 -0.1228892E+01 -0.1136776E+00  0.3194261E+00
 -0.6401370E+01 -0.1545430E+02 -0.2310450E+00  0.3251740E+00 -0.1292435E+01 -0.8935148E-01  0.3126571E+00
 -0.4855760E+01 -0.1600730E+02 -0.2310450E+00  0.3048937E+00 -0.1366989E+01 -0.6171038E-01  0.2985833E+00
 -0.3263390E+01 -0.1640620E+02 -0.2310450E+00  0.2760873E+00 -0.1465250E+01 -0.2908599E-01  0.2745509E+00
 -0.1639590E+01 -0.1664710E+02 -0.2310450E+00  0.2304272E+00 -0.1591368E+01  0.4740011E-02  0.2303785E+00
  0.1994750E-06 -0.1672760E+02 -0.2310450E+00  0.1764612E+00 -0.1742633E+01  0.3017345E-01  0.1738624E+00
  0.1639600E+01 -0.1664710E+02 -0.2310450E+00  0.1119897E+00 -0.1994622E+01  0.4605589E-01  0.1020811E+00
  0.3263390E+01 -0.1640620E+02 -0.2310450E+00  0.5925498E-01 -0.2799066E+01  0.5581281E-01  0.1990184E-01
  0.4855770E+01 -0.1600730E+02 -0.2310450E+00  0.7663189E-01  0.2632955E+01  0.6693096E-01 -0.3731880E-01
  0.6401380E+01 -0.1545430E+02 -0.2310450E+00  0.1086075E+00  0.2406663E+01  0.8057347E-01 -0.7282510E-01
  0.7885340E+01 -0.1475240E+02 -0.2310450E+00  0.1347482E+00  0.2350712E+01  0.9475749E-01 -0.9580234E-01
  0.9293360E+01 -0.1390850E+02 -0.2310450E+00  0.1560420E+00  0.2345210E+01  0.1091197E+00 -0.1115437E+00
  0.1061190E+02 -0.1293060E+02 -0.2310450E+00  0.1755066E+00  0.2348619E+01  0.1231583E+00 -0.1250384E+00
  0.1182820E+02 -0.1182820E+02 -0.2310450E+00  0.1914330E+00  0.2366521E+01  0.1367542E+00 -0.1339585E+00
  0.1293060E+02 -0.1061190E+02 -0.2310450E+00  0.2058982E+00  0.2384010E+01  0.1495849E+00 -0.1414865E+00
  0.1390850E+02 -0.9293360E+01 -0.2310450E+00  0.2198267E+00  0.2396509E+01  0.1615794E+00 -0.1490498E+00
  0.1475240E+02 -0.7885330E+01 -0.2310450E+00  0.2300773E+00  0.2420777E+01  0.1728497E+00 -0.1518504E+00
  0.1545430E+02 -0.6401380E+01 -0.2310450E+00  0.2383180E+00  0.2447775E+01  0.1832213E+00 -0.1523989E+00
  0.1600730E+02 -0.4855760E+01 -0.2310450E+00  0.2460153E+00  0.2469797E+01  0.1925575E+00 -0.1531180E+00
  0.1640620E+02 -0.3263390E+01 -0.2310450E+00  0.2537856E+00  0.2483876E+01  0.2008434E+00 -0.1551420E+00
  0.1664710E+02 -0.1639590E+01 -0.2310450E+00  0.2611991E+00  0.2491833E+01  0.2079743E+00 -0.1580241E+00
  0.1672760E+02  0.0000000E+00 -0.4105000E+00  0.2653845E+00  0.2497732E+01  0.2122504E+00 -0.1593069E+00
  0.1664710E+02  0.1639590E+01 -0.4105000E+00  0.2707573E+00  0.2503058E+01  0.2174100E+00 -0.1613766E+00
  0.1640620E+02  0.3263390E+01 -0.4105000E+00  0.2751992E+00  0.2506448E+01  0.2215315E+00 -0.1632740E+00
  0.1600730E+02  0.4855770E+01 -0.4105000E+00  0.2793682E+00  0.2506189E+01  0.2248446E+00 -0.1658056E+00
  0.1545430E+02  0.6401380E+01 -0.4105000E+00  0.2838348E+00  0.2500612E+01  0.2274964E+00 -0.1697281E+00
  0.1475240E+02  0.7885340E+01 -0.4105000E+00  0.2880801E+00  0.2491747E+01  0.2293629E+00 -0.1743067E+00
  0.1390850E+02  0.9293360E+01 -0.4105000E+00  0.2903676E+00  0.2483141E+01  0.2296635E+00 -0.1776739E+00
  0.1293060E+02  0.1061190E+02 -0.4105000E+00  0.2886426E+00  0.2477444E+01  0.2272892E+00 -0.1779161E+00
  0.1182820E+02  0.1182820E+02 -0.4105000E+00  0.2864025E+00  0.2469780E+01  0.2241657E+00 -0.1782587E+00
  0.1061190E+02  0.1293060E+02 -0.4105000E+00  0.2829937E+00  0.2461588E+01  0.2200473E+00 -0.1779455E+00
  0.9293360E+01  0.1390850E+02 -0.4105000E+00  0.2762808E+00  0.2455163E+01  0.2137070E+00 -0.1751011E+00
  0.7885330E+01  0.1475240E+02 -0.4105000E+00  0.2694635E+00  0.2447120E+01  0.2070534E+00 -0.1724514E+00
  0.6401380E+01  0.1545430E+02 -0.4105000E+00  0.2587339E+00  0.2442297E+01  0.1980080E+00 -0.1665415E+00
  0.4855770E+01  0.1600730E+02 -0.4105000E+00  0.2402076E+00  0.2446360E+01  0.1844566E+00 -0.1538683E+00
  0.3263390E+01  0.1640620E+02 -0.4105000E+00  0.2104979E+00  0.2465922E+01  0.1642490E+00 -0.1316497E+00
  0.1639590E+01  0.1664710E+02 -0.4105000E+00  0.1575196E+00  0.2533471E+01  0.1292799E+00 -0.8999514E-01
 -0.7311870E-06  0.1672760E+02 -0.4105000E+00  0.9048013E-01  0.2742868E+01  0.8338258E-01 -0.3512832E-01
 -0.1639590E+01  0.1664710E+02 -0.4105000E+00  0.4461556E-01 -0.2206597E+01  0.2649369E-01  0.3589753E-01
 -0.3263390E+01  0.1640620E+02 -0.4105000E+00  0.1234351E+00 -0.1271311E+01 -0.3641681E-01  0.1179408E+00
 -0.4855770E+01  0.1600730E+02 -0.4105000E+00  0.1938788E+00 -0.1131113E+01 -0.8252518E-01  0.1754383E+00
 -0.6401380E+01  0.1545430E+02 -0.4105000E+00  0.2400241E+00 -0.1072984E+01 -0.1146127E+00  0.2108922E+00
 -0.7885340E+01  0.1475240E+02 -0.4105000E+00  0.2719213E+00 -0.1035172E+01 -0.1387826E+00  0.2338388E+00
 -0.9293360E+01  0.1390850E+02 -0.4105000E+00  0.2955178E+00 -0.1005855E+01 -0.1582102E+00  0.2496002E+00
 -0.1061190E+02  0.1293060E+02 -0.4105000E+00  0.3163297E+00 -0.9813332E+00 -0.1758524E+00  0.2629457E+00
 -0.1182820E+02  0.1182820E+02 -0.4105000E+00  0.3317716E+00 -0.9606594E+00 -0.1900984E+00  0.2719100E+00