 VARIABLES="X" "Y" "Z" "abs(eta) (m)" "angle(phi) (rad)" "PRE1" "PRE2"
ZONE N=   3200 ,E =    3136 ,F=FEPOINT,ET=QUADRILATERAL
  0.1672760E+02  0.0000000E+00  0.0000000E+00  0.3903387E+00 -0.9041293E+00 -0.2413738E+00  0.3067622E+00
  0.1664710E+02  0.1639590E+01  0.0000000E+00  0.3879026E+00 -0.8992414E+00 -0.2413546E+00  0.3036716E+00
  0.1640620E+02  0.3263390E+01  0.0000000E+00  0.3839558E+00 -0.8974480E+00 -0.2394375E+00  0.3001528E+00
  0.1600730E+02  0.4855770E+01  0.0000000E+00  0.3801167E+00 -0.8997579E+00 -0.2363564E+00  0.2976984E+00
  0.1545430E+02  0.6401380E+01  0.0000000E+00  0.3769417E+00 -0.9066508E+00 -0.2323418E+00  0.2968204E+00
  0.1475240E+02  0.7885340E+01  0.0000000E+00  0.3732560E+00 -0.9169967E+00 -0.2270169E+00  0.2962826E+00
  0.1390850E+02  0.9293360E+01  0.0000000E+00  0.3661818E+00 -0.9293380E+00 -0.2191102E+00  0.2933936E+00
  0.1293060E+02  0.1061190E+02  0.0000000E+00  0.3526178E+00 -0.9430349E+00 -0.2071046E+00  0.2853892E+00
  0.1182820E+02  0.1182820E+02  0.0000000E+00  0.3388018E+00 -0.9604831E+00 -0.1941755E+00  0.2776375E+00
  0.1061190E+02  0.1293060E+02  0.0000000E+00  0.3231596E+00 -0.9811863E+00 -0.1796887E+00  0.2685966E+00
  0.9293360E+01  0.1390850E+02  0.0000000E+00  0.3015830E+00 -0.1005756E+01 -0.1614827E+00  0.2547070E+00
  0.7885330E+01  0.1475240E+02  0.0000000E+00  0.2776521E+00 -0.1035067E+01 -0.1417326E+00  0.2387521E+00
  0.6401380E+01  0.1545430E+02  0.0000000E+00  0.2450272E+00 -0.1072958E+01 -0.1170073E+00  0.2152850E+00
  0.4855770E+01  0.1600730E+02  0.0000000E+00  0.1976443E+00 -0.1131379E+01 -0.8408036E-01  0.1788680E+00
  0.3263390E+01  0.1640620E+02  0.0000000E+00  0.1261031E+00 -0.1271222E+01 -0.3721473E-01  0.1204868E+00
  0.1639590E+01  0.1664710E+02  0.0000000E+00  0.4563303E-01 -0.2204328E+01  0.2701452E-01  0.3677757E-01
 -0.7311870E-06  0.1672760E+02  0.0000000E+00  0.9212973E-01  0.2745252E+01  0.8498780E-01 -0.3556628E-01
 -0.1639590E+01  0.1664710E+02  0.0000000E+00  0.1602891E+00  0.2535115E+01  0.1317033E+00 -0.9136104E-01
 -0.3263390E+01  0.1640620E+02  0.0000000E+00  0.2147294E+00  0.2466562E+01  0.1676366E+00 -0.1341890E+00
 -0.4855770E+01  0.1600730E+02  0.0000000E+00  0.2447816E+00  0.2447246E+01  0.1881078E+00 -0.1566316E+00
 -0.6401380E+01  0.1545430E+02  0.0000000E+00  0.2640474E+00  0.2442760E+01  0.2021529E+00 -0.1698682E+00
 -0.7885340E+01  0.1475240E+02  0.0000000E+00  0.2749850E+00  0.2447655E+01  0.2113903E+00 -0.1758719E+00
 -0.9293360E+01  0.1390850E+02  0.0000000E+00  0.2818337E+00  0.2455837E+01  0.2181227E+00 -0.1784734E+00
 -0.1061190E+02  0.1293060E+02  0.0000000E+00  0.2889646E+00  0.2461969E+01  0.2247593E+00 -0.1816144E+00
 -0.1182820E+02  0.1182820E+02  0.0000000E+00  0.2924060E+00  0.2470208E+01  0.2289425E+00 -0.1818973E+00
 -0.1293060E+02  0.1061190E+02  0.0000000E+00  0.2947689E+00  0.2477818E+01  0.2321814E+00 -0.1816054E+00
 -0.1390850E+02  0.9293360E+01  0.0000000E+00  0.2967780E+00  0.2483242E+01  0.2347521E+00 -0.1815728E+00
 -0.1475240E+02  0.7885330E+01  0.0000000E+00  0.2942877E+00  0.2492103E+01  0.2343685E+00 -0.1779795E+00
 -0.1545430E+02  0.6401370E+01  0.0000000E+00  0.2896597E+00  0.2501484E+01  0.2323160E+00 -0.1730087E+00
 -0.1600730E+02  0.4855770E+01  0.0000000E+00  0.2848971E+00  0.2507499E+01  0.2295156E+00 -0.1687866E+00
 -0.1640620E+02  0.3263390E+01  0.0000000E+00  0.2805785E+00  0.2507937E+01  0.2261093E+00 -0.1661290E+00
 -0.1664710E+02  0.1639590E+01  0.0000000E+00  0.2760535E+00  0.2504602E+01  0.2219165E+00 -0.1641907E+00
 -0.1672760E+02 -0.1462370E-05  0.0000000E+00  0.2705828E+00  0.2499345E+01  0.2166695E+00 -0.1620782E+00
 -0.1664710E+02 -0.1639590E+01  0.0000000E+00  0.2640771E+00  0.2492770E+01  0.2104155E+00 -0.1595683E+00
 -0.1640620E+02 -0.3263400E+01  0.0000000E+00  0.2565752E+00  0.2484909E+01  0.2032130E+00 -0.1566375E+00
 -0.1600730E+02 -0.4855770E+01  0.0000000E+00  0.2487488E+00  0.2470731E+01  0.1948416E+00 -0.1546374E+00
 -0.1545430E+02 -0.6401380E+01  0.0000000E+00  0.2410553E+00  0.2448315E+01  0.1854090E+00 -0.1540492E+00
 -0.1475240E+02 -0.7885340E+01  0.0000000E+00  0.2328445E+00  0.2420776E+01  0.1749283E+00 -0.1536770E+00
 -0.1390850E+02 -0.9293360E+01  0.0000000E+00  0.2225307E+00  0.2396253E+01  0.1635283E+00 -0.1509251E+00
 -0.1293060E+02 -0.1061190E+02  0.0000000E+00  0.2083131E+00  0.2384390E+01  0.1513937E+00 -0.1430884E+00
 -0.1182820E+02 -0.1182820E+02  0.0000000E+00  0.1936521E+00  0.2367001E+01  0.1384044E+00 -0.1354450E+00
 -0.1061190E+02 -0.1293060E+02  0.0000000E+00  0.1775678E+00  0.2348836E+01  0.1246320E+00 -0.1264799E+00
 -0.9293350E+01 -0.1390850E+02  0.0000000E+00  0.1577634E+00  0.2346100E+01  0.1104238E+00 -0.1126759E+00
 -0.7885340E+01 -0.1475240E+02  0.0000000E+00  0.1362601E+00  0.2351265E+01  0.9587434E-01 -0.9682420E-01
 -0.6401370E+01 -0.1545430E+02  0.0000000E+00  0.1098079E+00  0.2407558E+01  0.8152993E-01 -0.7355704E-01
 -0.4855760E+01 -0.1600730E+02  0.0000000E+00  0.7739589E-01  0.2635823E+01  0.6770609E-01 -0.3749680E-01
 -0.3263390E+01 -0.1640620E+02  0.0000000E+00  0.5993946E-01 -0.2797719E+01  0.5643035E-01  0.2020778E-01
 -0.1639590E+01 -0.1664710E+02  0.0000000E+00  0.1132513E+00 -0.1993728E+01  0.4648238E-01  0.1032727E+00
  0.1994750E-06 -0.1672760E+02  0.0000000E+00  0.1784401E+00 -0.1742076E+01  0.3041401E-01  0.1758290E+00
  0.1639600E+01 -0.1664710E+02  0.0000000E+00  0.2329429E+00 -0.1590758E+01  0.4649566E-02  0.2328965E+00
  0.3263390E+01 -0.1640620E+02  0.0000000E+00  0.2793132E+00 -0.1465002E+01 -0.2949478E-01  0.2777516E+00
  0.4855770E+01 -0.1600730E+02  0.0000000E+00  0.3083287E+00 -0.1366676E+01 -0.6250010E-01  0.3019276E+00
  0.6401380E+01 -0.1545430E+02  0.0000000E+00  0.3290242E+00 -0.1292255E+01 -0.9046624E-01  0.3163428E+00
  0.7885340E+01 -0.1475240E+02  0.0000000E+00  0.3430571E+00 -0.1228672E+01 -0.1150919E+00  0.3231749E+00
  0.9293360E+01 -0.1390850E+02  0.0000000E+00  0.3538568E+00 -0.1173525E+01 -0.1369084E+00  0.3262985E+00
  0.1061190E+02 -0.1293060E+02  0.0000000E+00  0.3648773E+00 -0.1128076E+01 -0.1563130E+00  0.3296994E+00
  0.1182820E+02 -0.1182820E+02  0.0000000E+00  0.3728622E+00 -0.1086816E+01 -0.1734951E+00  0.3300389E+00
  0.1293060E+02 -0.1061190E+02  0.0000000E+00  0.3798496E+00 -0.1050792E+01 -0.1887411E+00  0.3296399E+00
  0.1390850E+02 -0.9293360E+01  0.0000000E+00  0.3865792E+00 -0.1019864E+01 -0.2023672E+00  0.3293796E+00
  0.1475240E+02 -0.7885330E+01  0.0000000E+00  0.3893253E+00 -0.9897454E+00 -0.2137017E+00  0.3254317E+00
  0.1545430E+02 -0.6401380E+01  0.0000000E+00  0.3899162E+00 -0.9624357E+00 -0.2228461E+00  0.3199598E+00
  0.1600730E+02 -0.4855760E+01  0.0000000E+00  0.3901933E+00 -0.9402406E+00 -0.2300555E+00  0.3151591E+00
  0.1640620E+02 -0.3263390E+01  0.0000000E+00  0.3909008E+00 -0.9239076E+00 -0.2355985E+00  0.3119243E+00
  0.1664710E+02 -0.1639590E+01  0.0000000E+00  0.3912591E+00 -0.9122079E+00 -0.2394510E+00  0.3094300E+00
  0.1672760E+02  0.0000000E+00 -0.2568960E-01  0.3898368E+00 -0.9041645E+00 -0.2410527E+00  0.3063762E+00
  0.1664710E+02  0.1639590E+01 -0.2568960E-01  0.3874066E+00 -0.8992741E+00 -0.2410361E+00  0.3032911E+00
  0.1640620E+02  0.3263390E+01 -0.2568960E-01  0.3834676E+00 -0.8974791E+00 -0.2391238E+00  0.2997787E+00
  0.1600730E+02  0.4855770E+01 -0.2568960E-01  0.3796290E+00 -0.8997852E+00 -0.2360451E+00  0.2973230E+00
  0.1545430E+02  0.6401380E+01 -0.2568960E-01  0.3764432E+00 -0.9066673E+00 -0.2320296E+00  0.2964317E+00
  0.1475240E+02  0.7885340E+01 -0.2568960E-01  0.3727410E+00 -0.9170044E+00 -0.2267014E+00  0.2958756E+00
  0.1390850E+02  0.9293360E+01 -0.2568960E-01  0.3656673E+00 -0.9293377E+00 -0.2188024E+00  0.2929814E+00
  0.1293060E+02  0.1061190E+02 -0.2568960E-01  0.3521456E+00 -0.9430453E+00 -0.2068243E+00  0.2850091E+00
  0.1182820E+02  0.1182820E+02 -0.2568960E-01  0.3383521E+00 -0.9604953E+00 -0.1939144E+00  0.2772713E+00
  0.1061190E+02  0.1293060E+02 -0.2568960E-01  0.3227244E+00 -0.9811959E+00 -0.1794441E+00  0.2682365E+00
  0.9293360E+01  0.1390850E+02 -0.2568960E-01  0.3011973E+00 -0.1005763E+01 -0.1612744E+00  0.2543823E+00
  0.7885330E+01  0.1475240E+02 -0.2568960E-01  0.2772885E+00 -0.1035079E+01 -0.1415441E+00  0.2384412E+00
  0.6401380E+01  0.1545430E+02 -0.2568960E-01  0.2447122E+00 -0.1072956E+01 -0.1168571E+00  0.2150081E+00
  0.4855770E+01  0.1600730E+02 -0.2568960E-01  0.1974103E+00 -0.1131356E+01 -0.8398481E-01  0.1786543E+00
  0.3263390E+01  0.1640620E+02 -0.2568960E-01  0.1259303E+00 -0.1271240E+01 -0.3716161E-01  0.1203223E+00
  0.1639590E+01  0.1664710E+02 -0.2568960E-01  0.4556397E-01 -0.2204854E+01  0.2699293E-01  0.3670773E-01
 -0.7311870E-06  0.1672760E+02 -0.2568960E-01  0.9203483E-01  0.2745065E+01  0.8489364E-01 -0.3554546E-01
 -0.1639590E+01  0.1664710E+02 -0.2568960E-01  0.1601204E+00  0.2535007E+01  0.1315548E+00 -0.9127911E-01
 -0.3263390E+01  0.1640620E+02 -0.2568960E-01  0.2144627E+00  0.2466527E+01  0.1674237E+00 -0.1340282E+00
 -0.4855770E+01  0.1600730E+02 -0.2568960E-01  0.2444955E+00  0.2447195E+01  0.1878799E+00 -0.1564583E+00
 -0.6401380E+01  0.1545430E+02 -0.2568960E-01  0.2637140E+00  0.2442742E+01  0.2018948E+00 -0.1696572E+00
 -0.7885340E+01  0.1475240E+02 -0.2568960E-01  0.2746367E+00  0.2447632E+01  0.2111184E+00 -0.1756540E+00
 -0.9293360E+01  0.1390850E+02 -0.2568960E-01  0.2814810E+00  0.2455807E+01  0.2178442E+00 -0.1782566E+00
 -0.1061190E+02  0.1293060E+02 -0.2568960E-01  0.2885845E+00  0.2461962E+01  0.2244625E+00 -0.1813770E+00
 -0.1182820E+02  0.1182820E+02 -0.2568960E-01  0.2920225E+00  0.2470195E+01  0.2286399E+00 -0.1816615E+00
 -0.1293060E+02  0.1061190E+02 -0.2568960E-01  0.2943767E+00  0.2477811E+01  0.2318711E+00 -0.1813655E+00
 -0.1390850E+02  0.9293360E+01 -0.2568960E-01  0.2963677E+00  0.2483254E+01  0.2344298E+00 -0.1813187E+00
 -0.1475240E+02  0.7885330E+01 -0.2568960E-01  0.2938886E+00  0.2492102E+01  0.2340505E+00 -0.1777383E+00
 -0.1545430E+02  0.6401370E+01 -0.2568960E-01  0.2892832E+00  0.2501454E+01  0.2320089E+00 -0.1727907E+00
 -0.1600730E+02  0.4855770E+01 -0.2568960E-01  0.2845390E+00  0.2507442E+01  0.2292176E+00 -0.1685873E+00
 -0.1640620E+02  0.3263390E+01 -0.2568960E-01  0.2802281E+00  0.2507870E+01  0.2258158E+00 -0.1659368E+00
 -0.1664710E+02  0.1639590E+01 -0.2568960E-01  0.2757106E+00  0.2504538E+01  0.2216303E+00 -0.1640011E+00
 -0.1672760E+02 -0.1462370E-05 -0.2568960E-01  0.2702459E+00  0.2499273E+01  0.2163882E+00 -0.1618919E+00
 -0.1664710E+02 -0.1639590E+01 -0.2568960E-01  0.2637480E+00  0.2492689E+01  0.2101404E+00 -0.1593864E+00
 -0.1640620E+02 -0.3263400E+01 -0.2568960E-01  0.2562554E+00  0.2484818E+01  0.2029456E+00 -0.1564607E+00
 -0.1600730E+02 -0.4855770E+01 -0.2568960E-01  0.2484363E+00  0.2470651E+01  0.1945844E+00 -0.1544587E+00
 -0.1545430E+02 -0.6401380E+01 -0.2568960E-01  0.2407436E+00  0.2448274E+01  0.1851630E+00 -0.1538576E+00
 -0.1475240E+02 -0.7885340E+01 -0.2568960E-01  0.2325296E+00  0.2420794E+01  0.1746945E+00 -0.1534660E+00
 -0.1390850E+02 -0.9293360E+01 -0.2568960E-01  0.2222232E+00  0.2396297E+01  0.1633091E+00 -0.1507093E+00
 -0.1293060E+02 -0.1061190E+02 -0.2568960E-01  0.2080380E+00  0.2384362E+01  0.1511897E+00 -0.1429037E+00
 -0.1182820E+02 -0.1182820E+02 -0.2568960E-01  0.1934004E+00  0.2366956E+01  0.1382184E+00 -0.1352752E+00
 -0.1061190E+02 -0.1293060E+02 -0.2568960E-01  0.1773350E+00  0.2348821E+01  0.1244669E+00 -0.1263159E+00
 -0.9293350E+01 -0.1390850E+02 -0.2568960E-01  0.1575694E+00  0.2346011E+01  0.1102781E+00 -0.1125472E+00
 -0.7885340E+01 -0.1475240E+02 -0.2568960E-01  0.1360911E+00  0.2351207E+01  0.9574983E-01 -0.9670972E-01
 -0.6401370E+01 -0.1545430E+02 -0.2568960E-01  0.1096750E+00  0.2407457E+01  0.8142380E-01 -0.7347631E-01
 -0.4855760E+01 -0.1600730E+02 -0.2568960E-01  0.7731176E-01  0.2635489E+01  0.6761996E-01 -0.3747865E-01
 -0.3263390E+01 -0.1640620E+02 -0.2568960E-01  0.5986620E-01 -0.2797825E+01  0.5636352E-01  0.2017711E-01
 -0.1639590E+01 -0.1664710E+02 -0.2568960E-01  0.1131188E+00 -0.1993834E+01  0.4643892E-01  0.1031469E+00
  0.1994750E-06 -0.1672760E+02 -0.2568960E-01  0.1782231E+00 -0.1742154E+01  0.3039063E-01  0.1756129E+00
  0.1639600E+01 -0.1664710E+02 -0.2568960E-01  0.2326641E+00 -0.1590849E+01  0.4665301E-02  0.2326173E+00
  0.3263390E+01 -0.1640620E+02 -0.2568960E-01  0.2789510E+00 -0.1465037E+01 -0.2944681E-01  0.2773924E+00
  0.4855770E+01 -0.1600730E+02 -0.2568960E-01  0.3079453E+00 -0.1366711E+01 -0.6241186E-01  0.3015544E+00
  0.6401380E+01 -0.1545430E+02 -0.2568960E-01  0.3285924E+00 -0.1292279E+01 -0.9033994E-01  0.3159298E+00
  0.7885340E+01 -0.1475240E+02 -0.2568960E-01  0.3426062E+00 -0.1228701E+01 -0.1149312E+00  0.3227535E+00
  0.9293360E+01 -0.1390850E+02 -0.2568960E-01  0.3533951E+00 -0.1173562E+01 -0.1367177E+00  0.3258779E+00
  0.1061190E+02 -0.1293060E+02 -0.2568960E-01  0.3643864E+00 -0.1128094E+01 -0.1560970E+00  0.3292586E+00
  0.1182820E+02 -0.1182820E+02 -0.2568960E-01  0.3723609E+00 -0.1086834E+01 -0.1732558E+00  0.3295984E+00
  0.1293060E+02 -0.1061190E+02 -0.2568960E-01  0.3793350E+00 -0.1050803E+01 -0.1884819E+00  0.3291955E+00
  0.1390850E+02 -0.9293360E+01 -0.2568960E-01  0.3860423E+00 -0.1019859E+01 -0.2020878E+00  0.3289212E+00
  0.1475240E+02 -0.7885330E+01 -0.2568960E-01  0.3887926E+00 -0.9897476E+00 -0.2134086E+00  0.3249869E+00
  0.1545430E+02 -0.6401380E+01 -0.2568960E-01  0.3893985E+00 -0.9624581E+00 -0.2225430E+00  0.3195400E+00
  0.1600730E+02 -0.4855760E+01 -0.2568960E-01  0.3896884E+00 -0.9402725E+00 -0.2297478E+00  0.3147586E+00
  0.1640620E+02 -0.3263390E+01 -0.2568960E-01  0.3903979E+00 -0.9239457E+00 -0.2352835E+00  0.3115320E+00
  0.1664710E+02 -0.1639590E+01 -0.2568960E-01  0.3907548E+00 -0.9122482E+00 -0.2391299E+00  0.3090407E+00
  0.1672760E+02  0.0000000E+00 -0.1027320E+00  0.3883730E+00 -0.9042891E+00 -0.2401095E+00  0.3052557E+00
  0.1664710E+02  0.1639590E+01 -0.1027320E+00  0.3859571E+00 -0.8993922E+00 -0.2400985E+00  0.3021847E+00
  0.1640620E+02  0.3263390E+01 -0.1027320E+00  0.3820435E+00 -0.8975906E+00 -0.2382024E+00  0.2986919E+00
  0.1600730E+02  0.4855770E+01 -0.1027320E+00  0.3782044E+00 -0.8998829E+00 -0.2351304E+00  0.2962302E+00
  0.1545430E+02  0.6401380E+01 -0.1027320E+00  0.3749813E+00 -0.9067325E+00 -0.2311093E+00  0.2952956E+00
  0.1475240E+02  0.7885340E+01 -0.1027320E+00  0.3712264E+00 -0.9170396E+00 -0.2257698E+00  0.2946813E+00
  0.1390850E+02  0.9293360E+01 -0.1027320E+00  0.3641508E+00 -0.9293612E+00 -0.2178881E+00  0.2917714E+00
  0.1293060E+02  0.1061190E+02 -0.1027320E+00  0.3507544E+00 -0.9430818E+00 -0.2059968E+00  0.2838907E+00
  0.1182820E+02  0.1182820E+02 -0.1027320E+00  0.3370261E+00 -0.9605279E+00 -0.1931454E+00  0.2761909E+00
  0.1061190E+02  0.1293060E+02 -0.1027320E+00  0.3214366E+00 -0.9812217E+00 -0.1787212E+00  0.2671708E+00
  0.9293360E+01  0.1390850E+02 -0.1027320E+00  0.3000551E+00 -0.1005780E+01 -0.1606585E+00  0.2534205E+00
  0.7885330E+01  0.1475240E+02 -0.1027320E+00  0.2762091E+00 -0.1035096E+01 -0.1409891E+00  0.2375154E+00
  0.6401380E+01  0.1545430E+02 -0.1027320E+00  0.2437704E+00 -0.1072964E+01 -0.1164058E+00  0.2141815E+00
  0.4855770E+01  0.1600730E+02 -0.1027320E+00  0.1967051E+00 -0.1131310E+01 -0.8369301E-01  0.1780123E+00
  0.3263390E+01  0.1640620E+02 -0.1027320E+00  0.1254327E+00 -0.1271250E+01 -0.3701355E-01  0.1198472E+00
  0.1639590E+01  0.1664710E+02 -0.1027320E+00  0.4535634E-01 -0.2206071E+01  0.2691440E-01  0.3650771E-01
 -0.7311870E-06  0.1672760E+02 -0.1027320E+00  0.9173671E-01  0.2744542E+01  0.8460009E-01 -0.3547463E-01
 -0.1639590E+01  0.1664710E+02 -0.1027320E+00  0.1596087E+00  0.2534700E+01  0.1311065E+00 -0.9102765E-01
 -0.3263390E+01  0.1640620E+02 -0.1027320E+00  0.2136734E+00  0.2466406E+01  0.1667914E+00 -0.1335552E+00
 -0.4855770E+01  0.1600730E+02 -0.1027320E+00  0.2436364E+00  0.2447029E+01  0.1871939E+00 -0.1559396E+00
 -0.6401380E+01  0.1545430E+02 -0.1027320E+00  0.2627136E+00  0.2442653E+01  0.2011138E+00 -0.1690315E+00
 -0.7885340E+01  0.1475240E+02 -0.1027320E+00  0.2735967E+00  0.2447534E+01  0.2103018E+00 -0.1750095E+00
 -0.9293360E+01  0.1390850E+02 -0.1027320E+00  0.2804348E+00  0.2455682E+01  0.2170123E+00 -0.1776212E+00
 -0.1061190E+02  0.1293060E+02 -0.1027320E+00  0.2874590E+00  0.2461895E+01  0.2235748E+00 -0.1806848E+00
 -0.1182820E+02  0.1182820E+02 -0.1027320E+00  0.2908906E+00  0.2470124E+01  0.2277407E+00 -0.1809738E+00
 -0.1293060E+02  0.1061190E+02 -0.1027320E+00  0.2932215E+00  0.2477750E+01  0.2309501E+00 -0.1806679E+00
 -0.1390850E+02  0.9293360E+01 -0.1027320E+00  0.2951582E+00  0.2483241E+01  0.2334706E+00 -0.1805819E+00
 -0.1475240E+02  0.7885330E+01 -0.1027320E+00  0.2927167E+00  0.2492043E+01  0.2331068E+00 -0.1770431E+00
 -0.1545430E+02  0.6401370E+01 -0.1027320E+00  0.2881834E+00  0.2501296E+01  0.2310996E+00 -0.1721704E+00
 -0.1600730E+02  0.4855770E+01 -0.1027320E+00  0.2834951E+00  0.2507205E+01  0.2283367E+00 -0.1680232E+00
 -0.1640620E+02  0.3263390E+01 -0.1027320E+00  0.2792125E+00  0.2507597E+01  0.2249524E+00 -0.1653966E+00
 -0.1664710E+02  0.1639590E+01 -0.1027320E+00  0.2747094E+00  0.2504253E+01  0.2207789E+00 -0.1634684E+00
 -0.1672760E+02 -0.1462370E-05 -0.1027320E+00  0.2692626E+00  0.2498975E+01  0.2155527E+00 -0.1613673E+00
 -0.1664710E+02 -0.1639590E+01 -0.1027320E+00  0.2627895E+00  0.2492367E+01  0.2093255E+00 -0.1588746E+00
 -0.1640620E+02 -0.3263400E+01 -0.1027320E+00  0.2553249E+00  0.2484459E+01  0.2021526E+00 -0.1559652E+00
 -0.1600730E+02 -0.4855770E+01 -0.1027320E+00  0.2475246E+00  0.2470328E+01  0.1938205E+00 -0.1539546E+00
 -0.1545430E+02 -0.6401380E+01 -0.1027320E+00  0.2398311E+00  0.2448080E+01  0.1844314E+00 -0.1533102E+00
 -0.1475240E+02 -0.7885340E+01 -0.1027320E+00  0.2316074E+00  0.2420780E+01  0.1739996E+00 -0.1528598E+00
 -0.1390850E+02 -0.9293360E+01 -0.1027320E+00  0.2213224E+00  0.2396367E+01  0.1626576E+00 -0.1500871E+00
 -0.1293060E+02 -0.1061190E+02 -0.1027320E+00  0.2072339E+00  0.2384220E+01  0.1505852E+00 -0.1423727E+00
 -0.1182820E+02 -0.1182820E+02 -0.1027320E+00  0.1926607E+00  0.2366785E+01  0.1376668E+00 -0.1347813E+00
 -0.1061190E+02 -0.1293060E+02 -0.1027320E+00  0.1766477E+00  0.2348735E+01  0.1239735E+00 -0.1258370E+00
 -0.9293350E+01 -0.1390850E+02 -0.1027320E+00  0.1569960E+00  0.2345707E+01  0.1098426E+00 -0.1121711E+00
 -0.7885340E+01 -0.1475240E+02 -0.1027320E+00  0.1355872E+00  0.2351016E+01  0.9537689E-01 -0.9636983E-01
 -0.6401370E+01 -0.1545430E+02 -0.1027320E+00  0.1092749E+00  0.2407136E+01  0.8110327E-01 -0.7323430E-01
 -0.4855760E+01 -0.1600730E+02 -0.1027320E+00  0.7705730E-01  0.2634517E+01  0.6736107E-01 -0.3742076E-01
 -0.3263390E+01 -0.1640620E+02 -0.1027320E+00  0.5963551E-01 -0.2798344E+01  0.5615674E-01  0.2007023E-01
 -0.1639590E+01 -0.1664710E+02 -0.1027320E+00  0.1127127E+00 -0.1994119E+01  0.4630150E-01  0.1027634E+00
  0.1994750E-06 -0.1672760E+02 -0.1027320E+00  0.1775652E+00 -0.1742353E+01  0.3031329E-01  0.1749586E+00
  0.1639600E+01 -0.1664710E+02 -0.1027320E+00  0.2318246E+00 -0.1591081E+01  0.4702234E-02  0.2317769E+00
  0.3263390E+01 -0.1640620E+02 -0.1027320E+00  0.2778755E+00 -0.1465125E+01 -0.2930897E-01  0.2763255E+00
  0.4855770E+01 -0.1600730E+02 -0.1027320E+00  0.3067966E+00 -0.1366819E+01 -0.6214637E-01  0.3004363E+00
  0.6401380E+01 -0.1545430E+02 -0.1027320E+00  0.3273070E+00 -0.1292340E+01 -0.8996741E-01  0.3146995E+00
  0.7885340E+01 -0.1475240E+02 -0.1027320E+00  0.3412672E+00 -0.1228777E+01 -0.1144576E+00  0.3215008E+00
  0.9293360E+01 -0.1390850E+02 -0.1027320E+00  0.3520314E+00 -0.1173658E+01 -0.1361590E+00  0.3246333E+00
  0.1061190E+02 -0.1293060E+02 -0.1027320E+00  0.3629352E+00 -0.1128148E+01 -0.1554573E+00  0.3279557E+00
  0.1182820E+02 -0.1182820E+02 -0.1027320E+00  0.3708842E+00 -0.1086892E+01 -0.1725497E+00  0.3283012E+00
  0.1293060E+02 -0.1061190E+02 -0.1027320E+00  0.3778211E+00 -0.1050842E+01 -0.1877169E+00  0.3278889E+00
  0.1390850E+02 -0.9293360E+01 -0.1027320E+00  0.3844622E+00 -0.1019858E+01 -0.2012608E+00  0.3275748E+00
  0.1475240E+02 -0.7885330E+01 -0.1027320E+00  0.3872280E+00 -0.9897753E+00 -0.2125408E+00  0.3236849E+00
  0.1545430E+02 -0.6401380E+01 -0.1027320E+00  0.3878823E+00 -0.9625375E+00 -0.2216512E+00  0.3183134E+00
  0.1600730E+02 -0.4855760E+01 -0.1027320E+00  0.3882073E+00 -0.9403981E+00 -0.2288352E+00  0.3135911E+00
  0.1640620E+02 -0.3263390E+01 -0.1027320E+00  0.3889287E+00 -0.9240787E+00 -0.2343568E+00  0.3103907E+00
  0.1664710E+02 -0.1639590E+01 -0.1027320E+00  0.3892844E+00 -0.9123826E+00 -0.2381887E+00  0.3079099E+00
  0.1672760E+02  0.0000000E+00 -0.2310450E+00  0.3859434E+00 -0.9045027E+00 -0.2385426E+00  0.3033970E+00
  0.1664710E+02  0.1639590E+01 -0.2310450E+00  0.3835526E+00 -0.8995968E+00 -0.2385412E+00  0.3003509E+00
  0.1640620E+02  0.3263390E+01 -0.2310450E+00  0.3796793E+00 -0.8977834E+00 -0.2366711E+00  0.2968892E+00
  0.1600730E+02  0.4855770E+01 -0.2310450E+00  0.3758404E+00 -0.9000414E+00 -0.2336139E+00  0.2944156E+00
  0.1545430E+02  0.6401380E+01 -0.2310450E+00  0.3725543E+00 -0.9068406E+00 -0.2295818E+00  0.2934092E+00
  0.1475240E+02  0.7885340E+01 -0.2310450E+00  0.3687126E+00 -0.9170921E+00 -0.2242256E+00  0.2926976E+00
  0.1390850E+02  0.9293360E+01 -0.2310450E+00  0.3616329E+00 -0.9293948E+00 -0.2163718E+00  0.2897613E+00
  0.1293060E+02  0.1061190E+02 -0.2310450E+00  0.3484437E+00 -0.9431409E+00 -0.2046231E+00  0.2820326E+00
  0.1182820E+02  0.1182820E+02 -0.2310450E+00  0.3348234E+00 -0.9605849E+00 -0.1918674E+00  0.2743968E+00
  0.1061190E+02  0.1293060E+02 -0.2310450E+00  0.3192975E+00 -0.9812679E+00 -0.1775195E+00  0.2654010E+00
  0.9293360E+01  0.1390850E+02 -0.2310450E+00  0.2981559E+00 -0.1005811E+01 -0.1596337E+00  0.2518214E+00
  0.7885330E+01  0.1475240E+02 -0.2310450E+00  0.2744152E+00 -0.1035129E+01 -0.1400657E+00  0.2359773E+00
  0.6401380E+01  0.1545430E+02 -0.2310450E+00  0.2421998E+00 -0.1072974E+01 -0.1156536E+00  0.2128028E+00
  0.4855770E+01  0.1600730E+02 -0.2310450E+00  0.1955307E+00 -0.1131216E+01 -0.8320999E-01  0.1769416E+00
  0.3263390E+01  0.1640620E+02 -0.2310450E+00  0.1245982E+00 -0.1271278E+01 -0.3676398E-01  0.1190509E+00
  0.1639590E+01  0.1664710E+02 -0.2310450E+00  0.4503462E-01 -0.2206967E+01  0.2675594E-01  0.3622481E-01
 -0.7311870E-06  0.1672760E+02 -0.2310450E+00  0.9122297E-01  0.2743733E+01  0.8409777E-01 -0.3534396E-01
 -0.1639590E+01  0.1664710E+02 -0.2310450E+00  0.1587430E+00  0.2534166E+01  0.1303470E+00 -0.9060356E-01
 -0.3263390E+01  0.1640620E+02 -0.2310450E+00  0.2123505E+00  0.2466190E+01  0.1657300E+00 -0.1327640E+00
 -0.4855770E+01  0.1600730E+02 -0.2310450E+00  0.2422107E+00  0.2446743E+01  0.1860542E+00 -0.1550801E+00
 -0.6401380E+01  0.1545430E+02 -0.2310450E+00  0.2610481E+00  0.2442508E+01  0.1998144E+00 -0.1679890E+00
 -0.7885340E+01  0.1475240E+02 -0.2310450E+00  0.2718703E+00  0.2447363E+01  0.2089451E+00 -0.1739408E+00
 -0.9293360E+01  0.1390850E+02 -0.2310450E+00  0.2786986E+00  0.2455469E+01  0.2156312E+00 -0.1765674E+00
 -0.1061190E+02  0.1293060E+02 -0.2310450E+00  0.2855907E+00  0.2461770E+01  0.2220993E+00 -0.1795381E+00
 -0.1182820E+02  0.1182820E+02 -0.2310450E+00  0.2890117E+00  0.2469984E+01  0.2262447E+00 -0.1798363E+00
 -0.1293060E+02  0.1061190E+02 -0.2310450E+00  0.2913034E+00  0.2477631E+01  0.2294180E+00 -0.1795134E+00
 -0.1390850E+02  0.9293360E+01 -0.2310450E+00  0.2931497E+00  0.2483212E+01  0.2318767E+00 -0.1793599E+00
 -0.1475240E+02  0.7885330E+01 -0.2310450E+00  0.2907723E+00  0.2491935E+01  0.2315394E+00 -0.1758921E+00
 -0.1545430E+02  0.6401370E+01 -0.2310450E+00  0.2863576E+00  0.2501030E+01  0.2295899E+00 -0.1711407E+00
 -0.1600730E+02  0.4855770E+01 -0.2310450E+00  0.2817629E+00  0.2506799E+01  0.2268738E+00 -0.1670886E+00
 -0.1640620E+02  0.3263390E+01 -0.2310450E+00  0.2775267E+00  0.2507141E+01  0.2235191E+00 -0.1645001E+00
 -0.1664710E+02  0.1639590E+01 -0.2310450E+00  0.2730483E+00  0.2503777E+01  0.2193665E+00 -0.1625845E+00
 -0.1672760E+02 -0.1462370E-05 -0.2310450E+00  0.2676319E+00  0.2498476E+01  0.2141672E+00 -0.1604968E+00
 -0.1664710E+02 -0.1639590E+01 -0.2310450E+00  0.2611998E+00  0.2491836E+01  0.2079754E+00 -0.1580240E+00
 -0.1640620E+02 -0.3263400E+01 -0.2310450E+00  0.2537845E+00  0.2483874E+01  0.2008423E+00 -0.1551417E+00
 -0.1600730E+02 -0.4855770E+01 -0.2310450E+00  0.2460155E+00  0.2469796E+01  0.1925575E+00 -0.1531183E+00
 -0.1545430E+02 -0.6401380E+01 -0.2310450E+00  0.2383180E+00  0.2447773E+01  0.1832210E+00 -0.1523993E+00
 -0.1475240E+02 -0.7885340E+01 -0.2310450E+00  0.2300776E+00  0.2420780E+01  0.1728504E+00 -0.1518501E+00
 -0.1390850E+02 -0.9293360E+01 -0.2310450E+00  0.2198268E+00  0.2396508E+01  0.1615794E+00 -0.1490501E+00
 -0.1293060E+02 -0.1061190E+02 -0.2310450E+00  0.2058987E+00  0.2384007E+01  0.1495848E+00 -0.1414873E+00
 -0.1182820E+02 -0.1182820E+02 -0.2310450E+00  0.1914322E+00  0.2366519E+01  0.1367533E+00 -0.1339583E+00
 -0.1061190E+02 -0.1293060E+02 -0.2310450E+00  0.1755062E+00  0.2348622E+01  0.1231583E+00 -0.1250379E+00
 -0.9293350E+01 -0.1390850E+02 -0.2310450E+00  0.1560431E+00  0.2345220E+01  0.1091216E+00 -0.1115433E+00
 -0.7885340E+01 -0.1475240E+02 -0.2310450E+00  0.1347485E+00  0.2350711E+01  0.9475767E-01 -0.9580261E-01
 -0.6401370E+01 -0.1545430E+02 -0.2310450E+00  0.1086075E+00  0.2406665E+01  0.8057363E-01 -0.7282498E-01
 -0.4855760E+01 -0.1600730E+02 -0.2310450E+00  0.7663153E-01  0.2632958E+01  0.6693078E-01 -0.3731839E-01
 -0.3263390E+01 -0.1640620E+02 -0.2310450E+00  0.5925604E-01 -0.2799069E+01  0.5581387E-01  0.1990204E-01
 -0.1639590E+01 -0.1664710E+02 -0.2310450E+00  0.1119906E+00 -0.1994628E+01  0.4605684E-01  0.1020816E+00
  0.1994750E-06 -0.1672760E+02 -0.2310450E+00  0.1764612E+00 -0.1742634E+01  0.3017371E-01  0.1738623E+00
  0.1639600E+01 -0.1664710E+02 -0.2310450E+00  0.2304274E+00 -0.1591369E+01  0.4740249E-02  0.2303787E+00
  0.3263390E+01 -0.1640620E+02 -0.2310450E+00  0.2760872E+00 -0.1465252E+01 -0.2908543E-01  0.2745509E+00
  0.4855770E+01 -0.1600730E+02 -0.2310450E+00  0.3048935E+00 -0.1366991E+01 -0.6170977E-01  0.2985833E+00
  0.6401380E+01 -0.1545430E+02 -0.2310450E+00  0.3251742E+00 -0.1292431E+01 -0.8935265E-01  0.3126569E+00
  0.7885340E+01 -0.1475240E+02 -0.2310450E+00  0.3390503E+00 -0.1228896E+01 -0.1136760E+00  0.3194259E+00
  0.9293360E+01 -0.1390850E+02 -0.2310450E+00  0.3497716E+00 -0.1173811E+01 -0.1352355E+00  0.3225701E+00
  0.1061190E+02 -0.1293060E+02 -0.2310450E+00  0.3605316E+00 -0.1128231E+01 -0.1544009E+00  0.3257965E+00
  0.1182820E+02 -0.1182820E+02 -0.2310450E+00  0.3684389E+00 -0.1086977E+01 -0.1713844E+00  0.3261512E+00
  0.1293060E+02 -0.1061190E+02 -0.2310450E+00  0.3753135E+00 -0.1050900E+01 -0.1864521E+00  0.3257235E+00
  0.1390850E+02 -0.9293360E+01 -0.2310450E+00  0.3818454E+00 -0.1019848E+01 -0.1998945E+00  0.3253431E+00
  0.1475240E+02 -0.7885330E+01 -0.2310450E+00  0.3846349E+00 -0.9898168E+00 -0.2111042E+00  0.3215261E+00
  0.1545430E+02 -0.6401380E+01 -0.2310450E+00  0.3853680E+00 -0.9626766E+00 -0.2201705E+00  0.3162807E+00
  0.1600730E+02 -0.4855760E+01 -0.2310450E+00  0.3857553E+00 -0.9406037E+00 -0.2273257E+00  0.3116571E+00
  0.1640620E+02 -0.3263390E+01 -0.2310450E+00  0.3864937E+00 -0.9243037E+00 -0.2328202E+00  0.3084998E+00
  0.1664710E+02 -0.1639590E+01 -0.2310450E+00  0.3868473E+00 -0.9126055E+00 -0.2366293E+00  0.3060350E+00
  0.1672760E+02  0.0000000E+00 -0.4105000E+00  0.3825960E+00 -0.9048197E+00 -0.2363783E+00  0.3008405E+00
  0.1664710E+02  0.1639590E+01 -0.4105000E+00  0.3802392E+00 -0.8998947E+00 -0.2363918E+00  0.2978267E+00
  0.1640620E+02  0.3263390E+01 -0.4105000E+00  0.3764200E+00 -0.8980651E+00 -0.2345565E+00  0.2944066E+00
  0.1600730E+02  0.4855770E+01 -0.4105000E+00  0.3725784E+00 -0.9002839E+00 -0.2315156E+00  0.2919164E+00
  0.1545430E+02  0.6401380E+01 -0.4105000E+00  0.3692034E+00 -0.9070045E+00 -0.2274691E+00  0.2908074E+00
  0.1475240E+02  0.7885340E+01 -0.4105000E+00  0.3652364E+00 -0.9171793E+00 -0.2220863E+00  0.2899574E+00
  0.1390850E+02  0.9293360E+01 -0.4105000E+00  0.3581485E+00 -0.9294491E+00 -0.2142715E+00  0.2869810E+00
  0.1293060E+02  0.1061190E+02 -0.4105000E+00  0.3452428E+00 -0.9432310E+00 -0.2027182E+00  0.2794600E+00
  0.1182820E+02  0.1182820E+02 -0.4105000E+00  0.3317704E+00 -0.9606621E+00 -0.1900970E+00  0.2719094E+00
  0.1061190E+02  0.1293060E+02 -0.4105000E+00  0.3163291E+00 -0.9813340E+00 -0.1758518E+00  0.2629453E+00
  0.9293360E+01  0.1390850E+02 -0.4105000E+00  0.2955186E+00 -0.1005851E+01 -0.1582117E+00  0.2496003E+00
  0.7885330E+01  0.1475240E+02 -0.4105000E+00  0.2719214E+00 -0.1035176E+01 -0.1387818E+00  0.2338393E+00
  0.6401380E+01  0.1545430E+02 -0.4105000E+00  0.2400243E+00 -0.1072984E+01 -0.1146128E+00  0.2108923E+00
  0.4855770E+01  0.1600730E+02 -0.4105000E+00  0.1938786E+00 -0.1131114E+01 -0.8252479E-01  0.1754382E+00
  0.3263390E+01  0.1640620E+02 -0.4105000E+00  0.1234348E+00 -0.1271320E+01 -0.3641574E-01  0.1179408E+00
  0.1639590E+01  0.1664710E+02 -0.4105000E+00  0.4461600E-01 -0.2206619E+01  0.2649473E-01  0.3589730E-01
 -0.7311870E-06  0.1672760E+02 -0.4105000E+00  0.9048098E-01  0.2742868E+01  0.8338338E-01 -0.3512863E-01
 -0.1639590E+01  0.1664710E+02 -0.4105000E+00  0.1575207E+00  0.2533476E+01  0.1292813E+00 -0.8999511E-01
 -0.3263390E+01  0.1640620E+02 -0.4105000E+00  0.2104979E+00  0.2465922E+01  0.1642489E+00 -0.1316497E+00
 -0.4855770E+01  0.1600730E+02 -0.4105000E+00  0.2402075E+00  0.2446358E+01  0.1844561E+00 -0.1538687E+00
 -0.6401380E+01  0.1545430E+02 -0.4105000E+00  0.2587334E+00  0.2442295E+01  0.1980072E+00 -0.1665416E+00
 -0.7885340E+01  0.1475240E+02 -0.4105000E+00  0.2694635E+00  0.2447119E+01  0.2070533E+00 -0.1724515E+00
 -0.9293360E+01  0.1390850E+02 -0.4105000E+00  0.2762808E+00  0.2455164E+01  0.2137073E+00 -0.1751008E+00
 -0.1061190E+02  0.1293060E+02 -0.4105000E+00  0.2829932E+00  0.2461587E+01  0.2200468E+00 -0.1779454E+00
 -0.1182820E+02  0.1182820E+02 -0.4105000E+00  0.2864030E+00  0.2469780E+01  0.2241661E+00 -0.1782589E+00