 VARIABLES="X" "Y" "Z" "abs(eta) (m)" "angle(phi) (rad)" "PRE1" "PRE2"
ZONE N=   3200 ,E =    3136 ,F=FEPOINT,ET=QUADRILATERAL
  0.1530690E+02  0.0000000E+00  0.0000000E+00  0.1929787E+00 -0.7923263E+00 -0.1355079E+00  0.1373987E+00
  0.1523320E+02  0.1500340E+01  0.0000000E+00  0.1894622E+00 -0.7901651E+00 -0.1333298E+00  0.1346071E+00
  0.1501280E+02  0.2986230E+01  0.0000000E+00  0.1852624E+00 -0.7927669E+00 -0.1300314E+00  0.1319620E+00
  0.1464780E+02  0.4443360E+01  0.0000000E+00  0.1800010E+00 -0.8005934E+00 -0.1253313E+00  0.1291992E+00
  0.1414170E+02  0.5857700E+01  0.0000000E+00  0.1739605E+00 -0.8137568E+00 -0.1194713E+00  0.1264471E+00
  0.1349950E+02  0.7215620E+01  0.0000000E+00  0.1679462E+00 -0.8321579E+00 -0.1130751E+00  0.1241771E+00
  0.1272720E+02  0.8504060E+01  0.0000000E+00  0.1618651E+00 -0.8564489E+00 -0.1060418E+00  0.1222925E+00
  0.1183240E+02  0.9710600E+01  0.0000000E+00  0.1540719E+00 -0.8873275E+00 -0.9729435E-01  0.1194654E+00
  0.1082360E+02  0.1082360E+02  0.0000000E+00  0.1434893E+00 -0.9279867E+00 -0.8601420E-01  0.1148510E+00
  0.9710590E+01  0.1183240E+02  0.0000000E+00  0.1330704E+00 -0.9769276E+00 -0.7446239E-01  0.1102863E+00
  0.8504060E+01  0.1272720E+02  0.0000000E+00  0.1209906E+00 -0.1040549E+01 -0.6119057E-01  0.1043765E+00
  0.7215620E+01  0.1349950E+02  0.0000000E+00  0.1058122E+00 -0.1132581E+01 -0.4489869E-01  0.9581402E-01
  0.5857700E+01  0.1414170E+02  0.0000000E+00  0.8848102E-01 -0.1276033E+01 -0.2570489E-01  0.8466492E-01
  0.4443360E+01  0.1464780E+02  0.0000000E+00  0.6837744E-01 -0.1557131E+01 -0.9343476E-03  0.6837105E-01
  0.2986230E+01  0.1501280E+02  0.0000000E+00  0.5534963E-01 -0.2396200E+01  0.4067212E-01  0.3754145E-01
  0.1500340E+01  0.1523320E+02  0.0000000E+00  0.1558759E+00  0.2841109E+01  0.1488917E+00 -0.4613644E-01
 -0.6690860E-06  0.1530690E+02  0.0000000E+00  0.2049101E+00  0.2763150E+01  0.1904109E+00 -0.7570889E-01
 -0.1500340E+01  0.1523320E+02  0.0000000E+00  0.2163821E+00  0.2754566E+01  0.2003775E+00 -0.8167048E-01
 -0.2986230E+01  0.1501280E+02  0.0000000E+00  0.1717851E+00  0.2812805E+01  0.1625834E+00 -0.5546863E-01
 -0.4443360E+01  0.1464780E+02  0.0000000E+00  0.1482819E+00  0.2862339E+01  0.1425377E+00 -0.4087217E-01
 -0.5857700E+01  0.1414170E+02  0.0000000E+00  0.1353889E+00  0.2902229E+01  0.1315289E+00 -0.3209863E-01
 -0.7215620E+01  0.1349950E+02  0.0000000E+00  0.1248299E+00  0.2944171E+01  0.1224051E+00 -0.2448438E-01
 -0.8504060E+01  0.1272720E+02  0.0000000E+00  0.1174922E+00  0.2978639E+01  0.1159358E+00 -0.1906112E-01
 -0.9710590E+01  0.1183240E+02  0.0000000E+00  0.1105603E+00  0.3016268E+01  0.1096932E+00 -0.1381971E-01
 -0.1082360E+02  0.1082360E+02  0.0000000E+00  0.1039737E+00  0.3056175E+01  0.1035947E+00 -0.8870379E-02
 -0.1183240E+02  0.9710590E+01  0.0000000E+00  0.9760685E-01  0.3097923E+01  0.9751379E-01 -0.4261125E-02
 -0.1272720E+02  0.8504060E+01  0.0000000E+00  0.9153231E-01 -0.3141026E+01  0.9153230E-01  0.5190283E-04
 -0.1349950E+02  0.7215620E+01  0.0000000E+00  0.8570176E-01 -0.3094268E+01  0.8560581E-01  0.4054334E-02
 -0.1414170E+02  0.5857690E+01  0.0000000E+00  0.8031514E-01 -0.3049627E+01  0.7997575E-01  0.7375794E-02
 -0.1464780E+02  0.4443360E+01  0.0000000E+00  0.7498688E-01 -0.2999888E+01  0.7423525E-01  0.1059048E-01
 -0.1501280E+02  0.2986230E+01  0.0000000E+00  0.7001734E-01 -0.2947823E+01  0.6870698E-01  0.1348253E-01
 -0.1523320E+02  0.1500340E+01  0.0000000E+00  0.6545283E-01 -0.2892907E+01  0.6343929E-01  0.1610991E-01
 -0.1530690E+02 -0.1338170E-05  0.0000000E+00  0.6104384E-01 -0.2832043E+01  0.5814247E-01  0.1859579E-01
 -0.1523320E+02 -0.1500340E+01  0.0000000E+00  0.5691682E-01 -0.2761931E+01  0.5286379E-01  0.2109370E-01
 -0.1501280E+02 -0.2986230E+01  0.0000000E+00  0.5327872E-01 -0.2680310E+01  0.4771014E-01  0.2371422E-01
 -0.1464780E+02 -0.4443360E+01  0.0000000E+00  0.5048095E-01 -0.2589346E+01  0.4297685E-01  0.2648239E-01
 -0.1414170E+02 -0.5857700E+01  0.0000000E+00  0.4845444E-01 -0.2492032E+01  0.3858666E-01  0.2930703E-01
 -0.1349950E+02 -0.7215620E+01  0.0000000E+00  0.4668383E-01 -0.2389261E+01  0.3408374E-01  0.3190108E-01
 -0.1272720E+02 -0.8504060E+01  0.0000000E+00  0.4547808E-01 -0.2286540E+01  0.2984174E-01  0.3431801E-01
 -0.1183240E+02 -0.9710600E+01  0.0000000E+00  0.4600876E-01 -0.2177342E+01  0.2622649E-01  0.3780182E-01
 -0.1082360E+02 -0.1082360E+02  0.0000000E+00  0.4914137E-01 -0.2075845E+01  0.2377705E-01  0.4300611E-01
 -0.9710600E+01 -0.1183240E+02  0.0000000E+00  0.5267181E-01 -0.1989087E+01  0.2139525E-01  0.4813069E-01
 -0.8504050E+01 -0.1272720E+02  0.0000000E+00  0.5797419E-01 -0.1919412E+01  0.1980383E-01  0.5448684E-01
 -0.7215620E+01 -0.1349950E+02  0.0000000E+00  0.6628977E-01 -0.1871342E+01  0.1962452E-01  0.6331833E-01
 -0.5857690E+01 -0.1414170E+02  0.0000000E+00  0.7757981E-01 -0.1858143E+01  0.2198682E-01  0.7439897E-01
 -0.4443360E+01 -0.1464780E+02  0.0000000E+00  0.9433609E-01 -0.1868618E+01  0.2768179E-01  0.9018323E-01
 -0.2986230E+01 -0.1501280E+02  0.0000000E+00  0.1276629E+00 -0.1930621E+01  0.4495139E-01  0.1194872E+00
 -0.1500340E+01 -0.1523320E+02  0.0000000E+00  0.2241334E+00 -0.2042819E+01  0.1019109E+00  0.1996245E+00
  0.1825330E-06 -0.1530690E+02  0.0000000E+00  0.2532590E+00 -0.2012189E+01  0.1081920E+00  0.2289860E+00
  0.1500340E+01 -0.1523320E+02  0.0000000E+00  0.2515733E+00 -0.1918747E+01  0.8577946E-01  0.2364973E+00
  0.2986230E+01 -0.1501280E+02  0.0000000E+00  0.2155548E+00 -0.1611911E+01  0.8859977E-02  0.2153726E+00
  0.4443360E+01 -0.1464780E+02  0.0000000E+00  0.2049594E+00 -0.1432765E+01 -0.2820104E-01  0.2030100E+00
  0.5857700E+01 -0.1414170E+02  0.0000000E+00  0.2019643E+00 -0.1312842E+01 -0.5152176E-01  0.1952821E+00
  0.7215620E+01 -0.1349950E+02  0.0000000E+00  0.2007528E+00 -0.1214432E+01 -0.7003658E-01  0.1881398E+00
  0.8504060E+01 -0.1272720E+02  0.0000000E+00  0.2014060E+00 -0.1136367E+01 -0.8477041E-01  0.1826974E+00
  0.9710600E+01 -0.1183240E+02  0.0000000E+00  0.2018600E+00 -0.1070343E+01 -0.9685715E-01  0.1771049E+00
  0.1082360E+02 -0.1082360E+02  0.0000000E+00  0.2022176E+00 -0.1012866E+01 -0.1070604E+00  0.1715518E+00
  0.1183240E+02 -0.9710590E+01  0.0000000E+00  0.2027754E+00 -0.9605014E+00 -0.1162124E+00  0.1661702E+00
  0.1272720E+02 -0.8504060E+01  0.0000000E+00  0.2026221E+00 -0.9176983E+00 -0.1231233E+00  0.1609235E+00
  0.1349950E+02 -0.7215620E+01  0.0000000E+00  0.2018484E+00 -0.8828371E+00 -0.1281661E+00  0.1559367E+00
  0.1414170E+02 -0.5857700E+01  0.0000000E+00  0.2010601E+00 -0.8546767E+00 -0.1319884E+00  0.1516714E+00
  0.1464780E+02 -0.4443350E+01  0.0000000E+00  0.1999841E+00 -0.8304909E+00 -0.1348919E+00  0.1476407E+00
  0.1501280E+02 -0.2986230E+01  0.0000000E+00  0.1983244E+00 -0.8120632E+00 -0.1364477E+00  0.1439256E+00
  0.1523320E+02 -0.1500330E+01  0.0000000E+00  0.1958924E+00 -0.7994933E+00 -0.1365508E+00  0.1404555E+00
  0.1530690E+02  0.0000000E+00 -0.2568960E-01  0.1926742E+00 -0.7923552E+00 -0.1352901E+00  0.1371857E+00
  0.1523320E+02  0.1500340E+01 -0.2568960E-01  0.1891637E+00 -0.7901944E+00 -0.1331159E+00  0.1343990E+00
  0.1501280E+02  0.2986230E+01 -0.2568960E-01  0.1849712E+00 -0.7927957E+00 -0.1298233E+00  0.1317583E+00
  0.1464780E+02  0.4443360E+01 -0.2568960E-01  0.1797205E+00 -0.8006220E+00 -0.1251323E+00  0.1290015E+00
  0.1414170E+02  0.5857700E+01 -0.2568960E-01  0.1736911E+00 -0.8137825E+00 -0.1192831E+00  0.1262543E+00
  0.1349950E+02  0.7215620E+01 -0.2568960E-01  0.1676824E+00 -0.8321858E+00 -0.1128940E+00  0.1239851E+00
  0.1272720E+02  0.8504060E+01 -0.2568960E-01  0.1616015E+00 -0.8564810E+00 -0.1058652E+00  0.1220967E+00
  0.1183240E+02  0.9710600E+01 -0.2568960E-01  0.1538188E+00 -0.8873652E+00 -0.9712997E-01  0.1192727E+00
  0.1082360E+02  0.1082360E+02 -0.2568960E-01  0.1432648E+00 -0.9280113E+00 -0.8587681E-01  0.1146734E+00
  0.9710590E+01  0.1183240E+02 -0.2568960E-01  0.1328569E+00 -0.9769683E+00 -0.7433847E-01  0.1101125E+00
  0.8504060E+01  0.1272720E+02 -0.2568960E-01  0.1207934E+00 -0.1040601E+01 -0.6108547E-01  0.1042095E+00
  0.7215620E+01  0.1349950E+02 -0.2568960E-01  0.1056527E+00 -0.1132593E+01 -0.4482979E-01  0.9567013E-01
  0.5857700E+01  0.1414170E+02 -0.2568960E-01  0.8835255E-01 -0.1276006E+01 -0.2566991E-01  0.8454128E-01
  0.4443360E+01  0.1464780E+02 -0.2568960E-01  0.6828287E-01 -0.1556997E+01 -0.9422069E-03  0.6827637E-01
  0.2986230E+01  0.1501280E+02 -0.2568960E-01  0.5526724E-01 -0.2396295E+01  0.4061512E-01  0.3748174E-01
  0.1500340E+01  0.1523320E+02 -0.2568960E-01  0.1556735E+00  0.2841028E+01  0.1486945E+00 -0.4608860E-01
 -0.6690860E-06  0.1530690E+02 -0.2568960E-01  0.2046237E+00  0.2763119E+01  0.1901425E+00 -0.7560901E-01
 -0.1500340E+01  0.1523320E+02 -0.2568960E-01  0.2161121E+00  0.2754494E+01  0.2001215E+00 -0.8158305E-01
 -0.2986230E+01  0.1501280E+02 -0.2568960E-01  0.1715377E+00  0.2812779E+01  0.1623478E+00 -0.5539311E-01
 -0.4443360E+01  0.1464780E+02 -0.2568960E-01  0.1480628E+00  0.2862311E+01  0.1423259E+00 -0.4081582E-01
 -0.5857700E+01  0.1414170E+02 -0.2568960E-01  0.1351821E+00  0.2902222E+01  0.1313277E+00 -0.3205046E-01
 -0.7215620E+01  0.1349950E+02 -0.2568960E-01  0.1246488E+00  0.2944117E+01  0.1222263E+00 -0.2445547E-01
 -0.8504060E+01  0.1272720E+02 -0.2568960E-01  0.1173134E+00  0.2978628E+01  0.1157590E+00 -0.1903344E-01
 -0.9710590E+01  0.1183240E+02 -0.2568960E-01  0.1103899E+00  0.3016257E+01  0.1095240E+00 -0.1379964E-01
 -0.1082360E+02  0.1082360E+02 -0.2568960E-01  0.1038133E+00  0.3056161E+01  0.1034347E+00 -0.8858152E-02
 -0.1183240E+02  0.9710590E+01 -0.2568960E-01  0.9745736E-01  0.3097898E+01  0.9736434E-01 -0.4256973E-02
 -0.1272720E+02  0.8504060E+01 -0.2568960E-01  0.9139272E-01 -0.3141064E+01  0.9139270E-01  0.4830801E-04
 -0.1349950E+02  0.7215620E+01 -0.2568960E-01  0.8557282E-01 -0.3094347E+01  0.8547734E-01  0.4041427E-02
 -0.1414170E+02  0.5857690E+01 -0.2568960E-01  0.8019398E-01 -0.3049722E+01  0.7985579E-01  0.7357095E-02
 -0.1464780E+02  0.4443360E+01 -0.2568960E-01  0.7487394E-01 -0.3000007E+01  0.7412471E-01  0.1056571E-01
 -0.1501280E+02  0.2986230E+01 -0.2568960E-01  0.6991172E-01 -0.2947971E+01  0.6860533E-01  0.1345201E-01
 -0.1523320E+02  0.1500340E+01 -0.2568960E-01  0.6535353E-01 -0.2893066E+01  0.6334560E-01  0.1607542E-01
 -0.1530690E+02 -0.1338170E-05 -0.2568960E-01  0.6094960E-01 -0.2832221E+01  0.5805602E-01  0.1855673E-01
 -0.1523320E+02 -0.1500340E+01 -0.2568960E-01  0.5682833E-01 -0.2762125E+01  0.5278569E-01  0.2105066E-01
 -0.1501280E+02 -0.2986230E+01 -0.2568960E-01  0.5319481E-01 -0.2680527E+01  0.4764015E-01  0.2366653E-01
 -0.1464780E+02 -0.4443360E+01 -0.2568960E-01  0.5039911E-01 -0.2589591E+01  0.4291365E-01  0.2642895E-01
 -0.1414170E+02 -0.5857700E+01 -0.2568960E-01  0.4837294E-01 -0.2492293E+01  0.3852941E-01  0.2924767E-01
 -0.1349950E+02 -0.7215620E+01 -0.2568960E-01  0.4660747E-01 -0.2389483E+01  0.3403507E-01  0.3184133E-01
 -0.1272720E+02 -0.8504060E+01 -0.2568960E-01  0.4540874E-01 -0.2286699E+01  0.2980169E-01  0.3426095E-01
 -0.1183240E+02 -0.9710600E+01 -0.2568960E-01  0.4593894E-01 -0.2177507E+01  0.2619291E-01  0.3774013E-01
 -0.1082360E+02 -0.1082360E+02 -0.2568960E-01  0.4905699E-01 -0.2076003E+01  0.2374300E-01  0.4292853E-01
 -0.9710600E+01 -0.1183240E+02 -0.2568960E-01  0.5258526E-01 -0.1989246E+01  0.2136775E-01  0.4804819E-01
 -0.8504050E+01 -0.1272720E+02 -0.2568960E-01  0.5788183E-01 -0.1919575E+01  0.1978115E-01  0.5439680E-01
 -0.7215620E+01 -0.1349950E+02 -0.2568960E-01  0.6617434E-01 -0.1871517E+01  0.1960143E-01  0.6320465E-01
 -0.5857690E+01 -0.1414170E+02 -0.2568960E-01  0.7744208E-01 -0.1858236E+01  0.2195467E-01  0.7426485E-01
 -0.4443360E+01 -0.1464780E+02 -0.2568960E-01  0.9416951E-01 -0.1868729E+01  0.2764291E-01  0.9002092E-01
 -0.2986230E+01 -0.1501280E+02 -0.2568960E-01  0.1274602E+00 -0.1930758E+01  0.4489631E-01  0.1192913E+00
 -0.1500340E+01 -0.1523320E+02 -0.2568960E-01  0.2238144E+00 -0.2042981E+01  0.1017983E+00  0.1993239E+00
  0.1825330E-06 -0.1530690E+02 -0.2568960E-01  0.2528837E+00 -0.2012288E+01  0.1080543E+00  0.2286360E+00
  0.1500340E+01 -0.1523320E+02 -0.2568960E-01  0.2512237E+00 -0.1918895E+01  0.8569510E-01  0.2361561E+00
  0.2986230E+01 -0.1501280E+02 -0.2568960E-01  0.2152204E+00 -0.1611993E+01  0.8863776E-02  0.2150378E+00
  0.4443360E+01 -0.1464780E+02 -0.2568960E-01  0.2046364E+00 -0.1432798E+01 -0.2814998E-01  0.2026909E+00
  0.5857700E+01 -0.1414170E+02 -0.2568960E-01  0.2016405E+00 -0.1312855E+01 -0.5143652E-01  0.1949697E+00
  0.7215620E+01 -0.1349950E+02 -0.2568960E-01  0.2004355E+00 -0.1214482E+01 -0.6991637E-01  0.1878459E+00
  0.8504060E+01 -0.1272720E+02 -0.2568960E-01  0.2010793E+00 -0.1136409E+01 -0.8462515E-01  0.1824047E+00
  0.9710600E+01 -0.1183240E+02 -0.2568960E-01  0.2015332E+00 -0.1070373E+01 -0.9669510E-01  0.1768211E+00
  0.1082360E+02 -0.1082360E+02 -0.2568960E-01  0.2018916E+00 -0.1012883E+01 -0.1068848E+00  0.1712771E+00
  0.1183240E+02 -0.9710590E+01 -0.2568960E-01  0.2024455E+00 -0.9605373E+00 -0.1160174E+00  0.1659040E+00
  0.1272720E+02 -0.8504060E+01 -0.2568960E-01  0.2022935E+00 -0.9177341E+00 -0.1229178E+00  0.1606669E+00
  0.1349950E+02 -0.7215620E+01 -0.2568960E-01  0.2015258E+00 -0.8828689E+00 -0.1279562E+00  0.1556915E+00
  0.1414170E+02 -0.5857700E+01 -0.2568960E-01  0.2007406E+00 -0.8547013E+00 -0.1317749E+00  0.1514336E+00
  0.1464780E+02 -0.4443350E+01 -0.2568960E-01  0.1996669E+00 -0.8305203E+00 -0.1346737E+00  0.1474106E+00
  0.1501280E+02 -0.2986230E+01 -0.2568960E-01  0.1980101E+00 -0.8120944E+00 -0.1362270E+00  0.1437018E+00
  0.1523320E+02 -0.1500330E+01 -0.2568960E-01  0.1955830E+00 -0.7995232E+00 -0.1363309E+00  0.1402377E+00
  0.1530690E+02  0.0000000E+00 -0.1027320E+00  0.1917724E+00 -0.7924360E+00 -0.1346459E+00  0.1365546E+00
  0.1523320E+02  0.1500340E+01 -0.1027320E+00  0.1882800E+00 -0.7902714E+00 -0.1324837E+00  0.1337813E+00
  0.1501280E+02  0.2986230E+01 -0.1027320E+00  0.1841092E+00 -0.7928775E+00 -0.1292076E+00  0.1311549E+00
  0.1464780E+02  0.4443360E+01 -0.1027320E+00  0.1788891E+00 -0.8006999E+00 -0.1245434E+00  0.1284144E+00
  0.1414170E+02  0.5857700E+01 -0.1027320E+00  0.1728926E+00 -0.8138508E+00 -0.1187261E+00  0.1256820E+00
  0.1349950E+02  0.7215620E+01 -0.1027320E+00  0.1668991E+00 -0.8322559E+00 -0.1123580E+00  0.1234139E+00
  0.1272720E+02  0.8504060E+01 -0.1027320E+00  0.1608173E+00 -0.8565673E+00 -0.1053409E+00  0.1215133E+00
  0.1183240E+02  0.9710600E+01 -0.1027320E+00  0.1530652E+00 -0.8874667E+00 -0.9664211E-01  0.1186982E+00
  0.1082360E+02  0.1082360E+02 -0.1027320E+00  0.1425970E+00 -0.9280669E+00 -0.8547015E-01  0.1141436E+00
  0.9710590E+01  0.1183240E+02 -0.1027320E+00  0.1322224E+00 -0.9770599E+00 -0.7397342E-01  0.1095934E+00
  0.8504060E+01  0.1272720E+02 -0.1027320E+00  0.1202052E+00 -0.1040741E+01 -0.6077342E-01  0.1037105E+00
  0.7215620E+01  0.1349950E+02 -0.1027320E+00  0.1051635E+00 -0.1132667E+01 -0.4461522E-01  0.9523047E-01
  0.5857700E+01  0.1414170E+02 -0.1027320E+00  0.8796819E-01 -0.1275890E+01 -0.2556799E-01  0.8417054E-01
  0.4443360E+01  0.1464780E+02 -0.1027320E+00  0.6800050E-01 -0.1556510E+01 -0.9714181E-03  0.6799356E-01
  0.2986230E+01  0.1501280E+02 -0.1027320E+00  0.5501913E-01 -0.2396683E+01  0.4044727E-01  0.3729776E-01
  0.1500340E+01  0.1523320E+02 -0.1027320E+00  0.1550370E+00  0.2840847E+01  0.1480783E+00 -0.4592695E-01
 -0.6690860E-06  0.1530690E+02 -0.1027320E+00  0.2038394E+00  0.2762907E+01  0.1893977E+00 -0.7535937E-01
 -0.1500340E+01  0.1523320E+02 -0.1027320E+00  0.2152667E+00  0.2754309E+01  0.1993238E+00 -0.8130073E-01
 -0.2986230E+01  0.1501280E+02 -0.1027320E+00  0.1707982E+00  0.2812670E+01  0.1616418E+00 -0.5517195E-01
 -0.4443360E+01  0.1464780E+02 -0.1027320E+00  0.1474045E+00  0.2862214E+01  0.1416891E+00 -0.4064802E-01
 -0.5857700E+01  0.1414170E+02 -0.1027320E+00  0.1345633E+00  0.2902164E+01  0.1307247E+00 -0.3191137E-01
 -0.7215620E+01  0.1349950E+02 -0.1027320E+00  0.1241039E+00  0.2943942E+01  0.1216876E+00 -0.2436985E-01
 -0.8504060E+01  0.1272720E+02 -0.1027320E+00  0.1167767E+00  0.2978566E+01  0.1152283E+00 -0.1895353E-01
 -0.9710590E+01  0.1183240E+02 -0.1027320E+00  0.1098794E+00  0.3016198E+01  0.1090167E+00 -0.1374222E-01
 -0.1082360E+02  0.1082360E+02 -0.1027320E+00  0.1033316E+00  0.3056070E+01  0.1029539E+00 -0.8826407E-02
 -0.1183240E+02  0.9710590E+01 -0.1027320E+00  0.9700847E-01  0.3097787E+01  0.9691540E-01 -0.4248178E-02
 -0.1272720E+02  0.8504060E+01 -0.1027320E+00  0.9097447E-01 -0.3141229E+01  0.9097446E-01  0.3304893E-04
 -0.1349950E+02  0.7215620E+01 -0.1027320E+00  0.8518551E-01 -0.3094645E+01  0.8509165E-01  0.3997826E-02
 -0.1414170E+02  0.5857690E+01 -0.1027320E+00  0.7982969E-01 -0.3050070E+01  0.7949557E-01  0.7296046E-02
 -0.1464780E+02  0.4443360E+01 -0.1027320E+00  0.7453500E-01 -0.3000451E+01  0.7379382E-01  0.1048511E-01
 -0.1501280E+02  0.2986230E+01 -0.1027320E+00  0.6959344E-01 -0.2948474E+01  0.6829974E-01  0.1335638E-01
 -0.1523320E+02  0.1500340E+01 -0.1027320E+00  0.6505135E-01 -0.2893621E+01  0.6306158E-01  0.1596608E-01
 -0.1530690E+02 -0.1338170E-05 -0.1027320E+00  0.6066524E-01 -0.2832802E+01  0.5779589E-01  0.1843655E-01
 -0.1523320E+02 -0.1500340E+01 -0.1027320E+00  0.5656065E-01 -0.2762764E+01  0.5255040E-01  0.2091798E-01
 -0.1501280E+02 -0.2986230E+01 -0.1027320E+00  0.5294131E-01 -0.2681247E+01  0.4743008E-01  0.2351957E-01
 -0.1464780E+02 -0.4443360E+01 -0.1027320E+00  0.5015145E-01 -0.2590370E+01  0.4272326E-01  0.2626577E-01
 -0.1414170E+02 -0.5857700E+01 -0.1027320E+00  0.4812781E-01 -0.2493063E+01  0.3835655E-01  0.2906994E-01
 -0.1349950E+02 -0.7215620E+01 -0.1027320E+00  0.4637589E-01 -0.2390168E+01  0.3388765E-01  0.3165991E-01
 -0.1272720E+02 -0.8504060E+01 -0.1027320E+00  0.4519936E-01 -0.2287165E+01  0.2968018E-01  0.3408914E-01
 -0.1183240E+02 -0.9710600E+01 -0.1027320E+00  0.4572878E-01 -0.2177963E+01  0.2609022E-01  0.3755559E-01
 -0.1082360E+02 -0.1082360E+02 -0.1027320E+00  0.4880407E-01 -0.2076451E+01  0.2363971E-01  0.4269662E-01
 -0.9710600E+01 -0.1183240E+02 -0.1027320E+00  0.5232641E-01 -0.1989661E+01  0.2128236E-01  0.4780287E-01
 -0.8504050E+01 -0.1272720E+02 -0.1027320E+00  0.5760574E-01 -0.1920023E+01  0.1971102E-01  0.5412852E-01
 -0.7215620E+01 -0.1349950E+02 -0.1027320E+00  0.6583993E-01 -0.1872057E+01  0.1953634E-01  0.6287470E-01
 -0.5857690E+01 -0.1414170E+02 -0.1027320E+00  0.7703354E-01 -0.1858513E+01  0.2185929E-01  0.7386703E-01
 -0.4443360E+01 -0.1464780E+02 -0.1027320E+00  0.9367067E-01 -0.1869021E+01  0.2752265E-01  0.8953602E-01
 -0.2986230E+01 -0.1501280E+02 -0.1027320E+00  0.1268610E+00 -0.1931162E+01  0.4473322E-01  0.1187125E+00
 -0.1500340E+01 -0.1523320E+02 -0.1027320E+00  0.2228357E+00 -0.2043389E+01  0.1014339E+00  0.1984110E+00
  0.1825330E-06 -0.1530690E+02 -0.1027320E+00  0.2518264E+00 -0.2012710E+01  0.1076986E+00  0.2276347E+00
  0.1500340E+01 -0.1523320E+02 -0.1027320E+00  0.2501509E+00 -0.1919254E+01  0.8541360E-01  0.2351170E+00
  0.2986230E+01 -0.1501280E+02 -0.1027320E+00  0.2142247E+00 -0.1612236E+01  0.8874808E-02  0.2140408E+00
  0.4443360E+01 -0.1464780E+02 -0.1027320E+00  0.2036745E+00 -0.1432869E+01 -0.2800326E-01  0.2017402E+00
  0.5857700E+01 -0.1414170E+02 -0.1027320E+00  0.2006792E+00 -0.1312904E+01 -0.5118179E-01  0.1940426E+00
  0.7215620E+01 -0.1349950E+02 -0.1027320E+00  0.1994880E+00 -0.1214651E+01 -0.6955436E-01  0.1869697E+00
  0.8504060E+01 -0.1272720E+02 -0.1027320E+00  0.2001086E+00 -0.1136532E+01 -0.8419437E-01  0.1815345E+00
  0.9710600E+01 -0.1183240E+02 -0.1027320E+00  0.2005607E+00 -0.1070451E+01 -0.9621467E-01  0.1759754E+00
  0.1082360E+02 -0.1082360E+02 -0.1027320E+00  0.2009227E+00 -0.1012932E+01 -0.1063635E+00  0.1704604E+00
  0.1183240E+02 -0.9710590E+01 -0.1027320E+00  0.2014666E+00 -0.9606420E+00 -0.1154391E+00  0.1651139E+00
  0.1272720E+02 -0.8504060E+01 -0.1027320E+00  0.2013192E+00 -0.9178365E+00 -0.1223095E+00  0.1599056E+00
  0.1349950E+02 -0.7215620E+01 -0.1027320E+00  0.2005694E+00 -0.8829591E+00 -0.1273350E+00  0.1549641E+00
  0.1414170E+02 -0.5857700E+01 -0.1027320E+00  0.1997943E+00 -0.8547719E+00 -0.1311431E+00  0.1507290E+00
  0.1464780E+02 -0.4443350E+01 -0.1027320E+00  0.1987273E+00 -0.8306071E+00 -0.1340272E+00  0.1467285E+00
  0.1501280E+02 -0.2986230E+01 -0.1027320E+00  0.1970793E+00 -0.8121901E+00 -0.1355729E+00  0.1430393E+00
  0.1523320E+02 -0.1500330E+01 -0.1027320E+00  0.1946664E+00 -0.7996115E+00 -0.1356796E+00  0.1395924E+00
  0.1530690E+02  0.0000000E+00 -0.2310450E+00  0.1902984E+00 -0.7925594E+00 -0.1335942E+00  0.1355215E+00
  0.1523320E+02  0.1500340E+01 -0.2310450E+00  0.1868347E+00 -0.7903901E+00 -0.1314509E+00  0.1327699E+00
  0.1501280E+02  0.2986230E+01 -0.2310450E+00  0.1826985E+00 -0.7929972E+00 -0.1282019E+00  0.1301653E+00
  0.1464780E+02  0.4443360E+01 -0.2310450E+00  0.1775286E+00 -0.8008084E+00 -0.1235824E+00  0.1274512E+00
  0.1414170E+02  0.5857700E+01 -0.2310450E+00  0.1715854E+00 -0.8139408E+00 -0.1178172E+00  0.1247424E+00
  0.1349950E+02  0.7215620E+01 -0.2310450E+00  0.1656157E+00 -0.8323483E+00 -0.1114827E+00  0.1224751E+00
  0.1272720E+02  0.8504060E+01 -0.2310450E+00  0.1595305E+00 -0.8566793E+00 -0.1044846E+00  0.1205527E+00
  0.1183240E+02  0.9710600E+01 -0.2310450E+00  0.1518278E+00 -0.8875999E+00 -0.9584513E-01  0.1177514E+00
  0.1082360E+02  0.1082360E+02 -0.2310450E+00  0.1414988E+00 -0.9281220E+00 -0.8480565E-01  0.1132692E+00
  0.9710590E+01  0.1183240E+02 -0.2310450E+00  0.1311770E+00 -0.9771696E+00 -0.7337659E-01  0.1087349E+00
  0.8504060E+01  0.1272720E+02 -0.2310450E+00  0.1192348E+00 -0.1040928E+01 -0.6026366E-01  0.1028845E+00
  0.7215620E+01  0.1349950E+02 -0.2310450E+00  0.1043550E+00 -0.1132738E+01 -0.4426546E-01  0.9450147E-01
  0.5857700E+01  0.1414170E+02 -0.2310450E+00  0.8733675E-01 -0.1275594E+01 -0.2540921E-01  0.8355884E-01
  0.4443360E+01  0.1464780E+02 -0.2310450E+00  0.6753165E-01 -0.1555614E+01 -0.1025248E-02  0.6752387E-01
  0.2986230E+01  0.1501280E+02 -0.2310450E+00  0.5461962E-01 -0.2399041E+01  0.4024075E-01  0.3693217E-01
  0.1500340E+01  0.1523320E+02 -0.2310450E+00  0.1536711E+00  0.2841303E+01  0.1467945E+00 -0.4545546E-01
 -0.6690860E-06  0.1530690E+02 -0.2310450E+00  0.2025125E+00  0.2762567E+01  0.1881393E+00 -0.7493278E-01
 -0.1500340E+01  0.1523320E+02 -0.2310450E+00  0.2136568E+00  0.2754195E+01  0.1978239E+00 -0.8071525E-01
 -0.2986230E+01  0.1501280E+02 -0.2310450E+00  0.1695931E+00  0.2812424E+01  0.1604879E+00 -0.5482200E-01
 -0.4443360E+01  0.1464780E+02 -0.2310450E+00  0.1463179E+00  0.2862002E+01  0.1406362E+00 -0.4037822E-01
 -0.5857700E+01  0.1414170E+02 -0.2310450E+00  0.1335292E+00  0.2902048E+01  0.1297165E+00 -0.3168119E-01
 -0.7215620E+01  0.1349950E+02 -0.2310450E+00  0.1231977E+00  0.2943606E+01  0.1207910E+00 -0.2423250E-01
 -0.8504060E+01  0.1272720E+02 -0.2310450E+00  0.1158842E+00  0.2978400E+01  0.1143445E+00 -0.1882766E-01
 -0.9710590E+01  0.1183240E+02 -0.2310450E+00  0.1090311E+00  0.3016021E+01  0.1081726E+00 -0.1365528E-01
 -0.1082360E+02  0.1082360E+02 -0.2310450E+00  0.1025334E+00  0.3055835E+01  0.1021566E+00 -0.8782297E-02
 -0.1183240E+02  0.9710590E+01 -0.2310450E+00  0.9626354E-01  0.3097502E+01  0.9616998E-01 -0.4242980E-02
 -0.1272720E+02  0.8504060E+01 -0.2310450E+00  0.9028006E-01  0.3141571E+01  0.9028006E-01 -0.1943702E-05
 -0.1349950E+02  0.7215620E+01 -0.2310450E+00  0.8454252E-01 -0.3095263E+01  0.8445180E-01  0.3915435E-02
 -0.1414170E+02  0.5857690E+01 -0.2310450E+00  0.7922353E-01 -0.3050783E+01  0.7889710E-01  0.7184389E-02
 -0.1464780E+02  0.4443360E+01 -0.2310450E+00  0.7397030E-01 -0.3001320E+01  0.7324376E-01  0.1034203E-01
 -0.1501280E+02  0.2986230E+01 -0.2310450E+00  0.6906319E-01 -0.2949467E+01  0.6779247E-01  0.1318732E-01
 -0.1523320E+02  0.1500340E+01 -0.2310450E+00  0.6454780E-01 -0.2894692E+01  0.6259036E-01  0.1577546E-01
 -0.1530690E+02 -0.1338170E-05 -0.2310450E+00  0.6018941E-01 -0.2833920E+01  0.5736298E-01  0.1822782E-01
 -0.1523320E+02 -0.1500340E+01 -0.2310450E+00  0.5611265E-01 -0.2763954E+01  0.5215884E-01  0.2069020E-01
 -0.1501280E+02 -0.2986230E+01 -0.2310450E+00  0.5251677E-01 -0.2682545E+01  0.4707997E-01  0.2326988E-01
 -0.1464780E+02 -0.4443360E+01 -0.2310450E+00  0.4973646E-01 -0.2591770E+01  0.4240618E-01  0.2598907E-01
 -0.1414170E+02 -0.5857700E+01 -0.2310450E+00  0.4771646E-01 -0.2494433E+01  0.3806818E-01  0.2876934E-01
 -0.1349950E+02 -0.7215620E+01 -0.2310450E+00  0.4598883E-01 -0.2391354E+01  0.3364203E-01  0.3135581E-01
 -0.1272720E+02 -0.8504060E+01 -0.2310450E+00  0.4484909E-01 -0.2287945E+01  0.2947655E-01  0.3380198E-01
 -0.1183240E+02 -0.9710600E+01 -0.2310450E+00  0.4537848E-01 -0.2178705E+01  0.2591800E-01  0.3724867E-01
 -0.1082360E+02 -0.1082360E+02 -0.2310450E+00  0.4838417E-01 -0.2077158E+01  0.2346626E-01  0.4231267E-01
 -0.9710600E+01 -0.1183240E+02 -0.2310450E+00  0.5189769E-01 -0.1990316E+01  0.2113905E-01  0.4739738E-01
 -0.8504050E+01 -0.1272720E+02 -0.2310450E+00  0.5715035E-01 -0.1920717E+01  0.1959247E-01  0.5368704E-01
 -0.7215620E+01 -0.1349950E+02 -0.2310450E+00  0.6528860E-01 -0.1872882E+01  0.1942414E-01  0.6233221E-01
 -0.5857690E+01 -0.1414170E+02 -0.2310450E+00  0.7635529E-01 -0.1858864E+01  0.2169257E-01  0.7320904E-01
 -0.4443360E+01 -0.1464780E+02 -0.2310450E+00  0.9284832E-01 -0.1869469E+01  0.2732078E-01  0.8873774E-01
 -0.2986230E+01 -0.1501280E+02 -0.2310450E+00  0.1259413E+00 -0.1931962E+01  0.4450325E-01  0.1178163E+00
 -0.1500340E+01 -0.1523320E+02 -0.2310450E+00  0.2209568E+00 -0.2043651E+01  0.1006301E+00  0.1967116E+00
  0.1825330E-06 -0.1530690E+02 -0.2310450E+00  0.2500572E+00 -0.2013339E+01  0.1070842E+00  0.2259681E+00
  0.1500340E+01 -0.1523320E+02 -0.2310450E+00  0.2482075E+00 -0.1919193E+01  0.8473589E-01  0.2332955E+00
  0.2986230E+01 -0.1501280E+02 -0.2310450E+00  0.2125939E+00 -0.1612813E+01  0.8929799E-02  0.2124063E+00
  0.4443360E+01 -0.1464780E+02 -0.2310450E+00  0.2020922E+00 -0.1432972E+01 -0.2776504E-01  0.2001759E+00
  0.5857700E+01 -0.1414170E+02 -0.2310450E+00  0.1990939E+00 -0.1312927E+01 -0.5077304E-01  0.1925110E+00
  0.7215620E+01 -0.1349950E+02 -0.2310450E+00  0.1979287E+00 -0.1214906E+01 -0.6896342E-01  0.1855258E+00
  0.8504060E+01 -0.1272720E+02 -0.2310450E+00  0.1985131E+00 -0.1136719E+01 -0.8348925E-01  0.1801027E+00
  0.9710600E+01 -0.1183240E+02 -0.2310450E+00  0.1989643E+00 -0.1070569E+01 -0.9542827E-01  0.1745858E+00
  0.1082360E+02 -0.1082360E+02 -0.2310450E+00  0.1993339E+00 -0.1012999E+01 -0.1055112E+00  0.1691195E+00
  0.1183240E+02 -0.9710590E+01 -0.2310450E+00  0.1998618E+00 -0.9608076E+00 -0.1144924E+00  0.1638176E+00
  0.1272720E+02 -0.8504060E+01 -0.2310450E+00  0.1997234E+00 -0.9180056E+00 -0.1213131E+00  0.1586586E+00
  0.1349950E+02 -0.7215620E+01 -0.2310450E+00  0.1990038E+00 -0.8831053E+00 -0.1263186E+00  0.1537729E+00
  0.1414170E+02 -0.5857700E+01 -0.2310450E+00  0.1982450E+00 -0.8548852E+00 -0.1301092E+00  0.1495750E+00
  0.1464780E+02 -0.4443350E+01 -0.2310450E+00  0.1971902E+00 -0.8307491E+00 -0.1329698E+00  0.1456125E+00
  0.1501280E+02 -0.2986230E+01 -0.2310450E+00  0.1955571E+00 -0.8123443E+00 -0.1345039E+00  0.1419552E+00
  0.1523320E+02 -0.1500330E+01 -0.2310450E+00  0.1931677E+00 -0.7997498E+00 -0.1346159E+00  0.1385363E+00
  0.1530690E+02  0.0000000E+00 -0.4105000E+00  0.1882571E+00 -0.7927371E+00 -0.1321374E+00  0.1340913E+00
  0.1523320E+02  0.1500340E+01 -0.4105000E+00  0.1848324E+00 -0.7905594E+00 -0.1300200E+00  0.1313691E+00
  0.1501280E+02  0.2986230E+01 -0.4105000E+00  0.1807441E+00 -0.7931693E+00 -0.1268084E+00  0.1287947E+00
  0.1464780E+02  0.4443360E+01 -0.4105000E+00  0.1756439E+00 -0.8009660E+00 -0.1222505E+00  0.1261173E+00
  0.1414170E+02  0.5857700E+01 -0.4105000E+00  0.1697741E+00 -0.8140671E+00 -0.1165579E+00  0.1234403E+00
  0.1349950E+02  0.7215620E+01 -0.4105000E+00  0.1638369E+00 -0.8324776E+00 -0.1102697E+00  0.1211740E+00
  0.1272720E+02  0.8504060E+01 -0.4105000E+00  0.1577479E+00 -0.8568341E+00 -0.1032986E+00  0.1192216E+00
  0.1183240E+02  0.9710600E+01 -0.4105000E+00  0.1501146E+00 -0.8877804E+00 -0.9474263E-01  0.1164398E+00
  0.1082360E+02  0.1082360E+02 -0.4105000E+00  0.1399796E+00 -0.9281906E+00 -0.8388747E-01  0.1120589E+00
  0.9710590E+01  0.1183240E+02 -0.4105000E+00  0.1297322E+00 -0.9773089E+00 -0.7255344E-01  0.1075474E+00
  0.8504060E+01  0.1272720E+02 -0.4105000E+00  0.1178944E+00 -0.1041165E+01 -0.5956204E-01  0.1017421E+00
  0.7215620E+01  0.1349950E+02 -0.4105000E+00  0.1032287E+00 -0.1132856E+01 -0.4377667E-01  0.9348673E-01
  0.5857700E+01  0.1414170E+02 -0.4105000E+00  0.8645382E-01 -0.1275233E+01 -0.2518219E-01  0.8270502E-01
  0.4443360E+01  0.1464780E+02 -0.4105000E+00  0.6684470E-01 -0.1555001E+01 -0.1055799E-02  0.6683636E-01
  0.2986230E+01  0.1501280E+02 -0.4105000E+00  0.5405705E-01 -0.2401357E+01  0.3991085E-01  0.3645942E-01
  0.1500340E+01  0.1523320E+02 -0.4105000E+00  0.1519493E+00  0.2841499E+01  0.1451585E+00 -0.4491776E-01
 -0.6690860E-06  0.1530690E+02 -0.4105000E+00  0.2005550E+00  0.2762246E+01  0.1862969E+00 -0.7426829E-01
 -0.1500340E+01  0.1523320E+02 -0.4105000E+00  0.2114221E+00  0.2754058E+01  0.1957437E+00 -0.7989795E-01
 -0.2986230E+01  0.1501280E+02 -0.4105000E+00  0.1678436E+00  0.2812210E+01  0.1588207E+00 -0.5429054E-01
 -0.4443360E+01  0.1464780E+02 -0.4105000E+00  0.1448071E+00  0.2861700E+01  0.1391720E+00 -0.4000328E-01
 -0.5857700E+01  0.1414170E+02 -0.4105000E+00  0.1321014E+00  0.2901847E+01  0.1283231E+00 -0.3136825E-01
 -0.7215620E+01  0.1349950E+02 -0.4105000E+00  0.1219454E+00  0.2943094E+01  0.1195508E+00 -0.2404735E-01
 -0.8504060E+01  0.1272720E+02 -0.4105000E+00  0.1146491E+00  0.2978137E+01  0.1131209E+00 -0.1865672E-01
 -0.9710590E+01  0.1183240E+02 -0.4105000E+00  0.1078565E+00  0.3015749E+01  0.1070035E+00 -0.1353730E-01
 -0.1082360E+02  0.1082360E+02 -0.4105000E+00  0.1014254E+00  0.3055482E+01  0.1010496E+00 -0.8722997E-02