 VARIABLES="X" "Y" "Z" "abs(eta) (m)" "angle(phi) (rad)" "PRE1" "PRE2"
ZONE N=   3200 ,E =    3136 ,F=FEPOINT,ET=QUADRILATERAL
  0.1672760E+02  0.0000000E+00  0.0000000E+00  0.1128784E+00  0.2657006E+01  0.9988240E-01 -0.5258360E-01
  0.1664710E+02  0.1639590E+01  0.0000000E+00  0.1071999E+00  0.2660520E+01  0.9503262E-01 -0.4960466E-01
  0.1640620E+02  0.3263390E+01  0.0000000E+00  0.1012608E+00  0.2666410E+01  0.9004200E-01 -0.4632691E-01
  0.1600730E+02  0.4855770E+01  0.0000000E+00  0.9510865E-01  0.2666102E+01  0.8455807E-01 -0.4353835E-01
  0.1545430E+02  0.6401380E+01  0.0000000E+00  0.8889887E-01  0.2657280E+01  0.7867509E-01 -0.4139128E-01
  0.1475240E+02  0.7885340E+01  0.0000000E+00  0.8244357E-01  0.2646261E+01  0.7253476E-01 -0.3918737E-01
  0.1390850E+02  0.9293360E+01  0.0000000E+00  0.7533406E-01  0.2650893E+01  0.6644489E-01 -0.3550066E-01
  0.1293060E+02  0.1061190E+02  0.0000000E+00  0.6720962E-01  0.2698441E+01  0.6071750E-01 -0.2881871E-01
  0.1182820E+02  0.1182820E+02  0.0000000E+00  0.5905342E-01  0.2756292E+01  0.5472394E-01 -0.2219452E-01
  0.1061190E+02  0.1293060E+02  0.0000000E+00  0.5087400E-01  0.2849031E+01  0.4871227E-01 -0.1467236E-01
  0.9293360E+01  0.1390850E+02  0.0000000E+00  0.4350034E-01  0.3045875E+01  0.4330122E-01 -0.4157390E-02
  0.7885330E+01  0.1475240E+02  0.0000000E+00  0.3943467E-01 -0.2935226E+01  0.3859794E-01  0.8080354E-02
  0.6401380E+01  0.1545430E+02  0.0000000E+00  0.4347230E-01 -0.2524294E+01  0.3544929E-01  0.2516326E-01
  0.4855770E+01  0.1600730E+02  0.0000000E+00  0.6098778E-01 -0.2174045E+01  0.3459964E-01  0.5022325E-01
  0.3263390E+01  0.1640620E+02  0.0000000E+00  0.9771214E-01 -0.1984305E+01  0.3926317E-01  0.8947662E-01
  0.1639590E+01  0.1664710E+02  0.0000000E+00  0.1500929E+00 -0.1888559E+01  0.4689531E-01  0.1425788E+00
 -0.7311870E-06  0.1672760E+02  0.0000000E+00  0.1891727E+00 -0.1809388E+01  0.4470798E-01  0.1838138E+00
 -0.1639590E+01  0.1664710E+02  0.0000000E+00  0.2104835E+00 -0.1705440E+01  0.2825473E-01  0.2085784E+00
 -0.3263390E+01  0.1640620E+02  0.0000000E+00  0.2208653E+00 -0.1573362E+01  0.5666565E-03  0.2208646E+00
 -0.4855770E+01  0.1600730E+02  0.0000000E+00  0.2253029E+00 -0.1456240E+01 -0.2575351E-01  0.2238262E+00
 -0.6401380E+01  0.1545430E+02  0.0000000E+00  0.2296618E+00 -0.1368579E+01 -0.4612567E-01  0.2249821E+00
 -0.7885340E+01  0.1475240E+02  0.0000000E+00  0.2324427E+00 -0.1295247E+01 -0.6324202E-01  0.2236740E+00
 -0.9293360E+01  0.1390850E+02  0.0000000E+00  0.2347171E+00 -0.1233391E+01 -0.7770081E-01  0.2214829E+00
 -0.1061190E+02  0.1293060E+02  0.0000000E+00  0.2377170E+00 -0.1182543E+01 -0.8999307E-01  0.2200242E+00
 -0.1182820E+02  0.1182820E+02  0.0000000E+00  0.2395742E+00 -0.1137969E+01 -0.1004869E+00  0.2174815E+00
 -0.1293060E+02  0.1061190E+02  0.0000000E+00  0.2410779E+00 -0.1098858E+01 -0.1095974E+00  0.2147253E+00
 -0.1390850E+02  0.9293360E+01  0.0000000E+00  0.2424954E+00 -0.1064205E+01 -0.1176587E+00  0.2120388E+00
 -0.1475240E+02  0.7885330E+01  0.0000000E+00  0.2420139E+00 -0.1032900E+01 -0.1239910E+00  0.2078388E+00
 -0.1545430E+02  0.6401370E+01  0.0000000E+00  0.2404440E+00 -0.1005826E+01 -0.1287316E+00  0.2030800E+00
 -0.1600730E+02  0.4855770E+01  0.0000000E+00  0.2387060E+00 -0.9840799E+00 -0.1321547E+00  0.1987856E+00
 -0.1640620E+02  0.3263390E+01  0.0000000E+00  0.2371833E+00 -0.9677619E+00 -0.1345172E+00  0.1953486E+00
 -0.1664710E+02  0.1639590E+01  0.0000000E+00  0.2354119E+00 -0.9556208E+00 -0.1358567E+00  0.1922544E+00
 -0.1672760E+02 -0.1462370E-05  0.0000000E+00  0.2328797E+00 -0.9479004E+00 -0.1358596E+00  0.1891431E+00
 -0.1664710E+02 -0.1639590E+01  0.0000000E+00  0.2293916E+00 -0.9441704E+00 -0.1345187E+00  0.1858096E+00
 -0.1640620E+02 -0.3263400E+01  0.0000000E+00  0.2249190E+00 -0.9441844E+00 -0.1318934E+00  0.1821887E+00
 -0.1600730E+02 -0.4855770E+01  0.0000000E+00  0.2205821E+00 -0.9483299E+00 -0.1286084E+00  0.1792103E+00
 -0.1545430E+02 -0.6401380E+01  0.0000000E+00  0.2166051E+00 -0.9568653E+00 -0.1247830E+00  0.1770508E+00
 -0.1475240E+02 -0.7885340E+01  0.0000000E+00  0.2122035E+00 -0.9691960E+00 -0.1200992E+00  0.1749471E+00
 -0.1390850E+02 -0.9293360E+01  0.0000000E+00  0.2056317E+00 -0.9850672E+00 -0.1136747E+00  0.1713548E+00
 -0.1293060E+02 -0.1061190E+02  0.0000000E+00  0.1950847E+00 -0.1005355E+01 -0.1045241E+00  0.1647203E+00
 -0.1182820E+02 -0.1182820E+02  0.0000000E+00  0.1844529E+00 -0.1030478E+01 -0.9488431E-01  0.1581766E+00
 -0.1061190E+02 -0.1293060E+02  0.0000000E+00  0.1726710E+00 -0.1061237E+01 -0.8422757E-01  0.1507348E+00
 -0.9293350E+01 -0.1390850E+02  0.0000000E+00  0.1572033E+00 -0.1102209E+01 -0.7099713E-01  0.1402579E+00
 -0.7885340E+01 -0.1475240E+02  0.0000000E+00  0.1398119E+00 -0.1156552E+01 -0.5627407E-01  0.1279867E+00
 -0.6401370E+01 -0.1545430E+02  0.0000000E+00  0.1169808E+00 -0.1242570E+01 -0.3771044E-01  0.1107358E+00
 -0.4855760E+01 -0.1600730E+02  0.0000000E+00  0.8630766E-01 -0.1419143E+01 -0.1303873E-01  0.8531708E-01
 -0.3263390E+01 -0.1640620E+02  0.0000000E+00  0.5085314E-01 -0.2039842E+01  0.2298740E-01  0.4536101E-01
 -0.1639590E+01 -0.1664710E+02  0.0000000E+00  0.7057267E-01  0.3021029E+01  0.7006039E-01 -0.8487901E-02
  0.1994750E-06 -0.1672760E+02  0.0000000E+00  0.1175057E+00  0.2704547E+01  0.1064609E+00 -0.4973597E-01
  0.1639600E+01 -0.1664710E+02  0.0000000E+00  0.1466258E+00  0.2615872E+01  0.1268258E+00 -0.7358212E-01
  0.3263390E+01 -0.1640620E+02  0.0000000E+00  0.1582482E+00  0.2579958E+01  0.1339390E+00 -0.8427836E-01
  0.4855770E+01 -0.1600730E+02  0.0000000E+00  0.1589138E+00  0.2570562E+01  0.1337012E+00 -0.8589274E-01
  0.6401380E+01 -0.1545430E+02  0.0000000E+00  0.1588959E+00  0.2568270E+01  0.1334890E+00 -0.8618930E-01
  0.7885340E+01 -0.1475240E+02  0.0000000E+00  0.1568040E+00  0.2573757E+01  0.1321963E+00 -0.8433049E-01
  0.9293360E+01 -0.1390850E+02  0.0000000E+00  0.1541780E+00  0.2581951E+01  0.1306574E+00 -0.8185035E-01
  0.1061190E+02 -0.1293060E+02  0.0000000E+00  0.1526511E+00  0.2587481E+01  0.1298096E+00 -0.8032311E-01
  0.1182820E+02 -0.1182820E+02  0.0000000E+00  0.1499873E+00  0.2595683E+01  0.1281874E+00 -0.7787284E-01
  0.1293060E+02 -0.1061190E+02  0.0000000E+00  0.1470578E+00  0.2603805E+01  0.1262997E+00 -0.7532845E-01
  0.1390850E+02 -0.9293360E+01  0.0000000E+00  0.1439629E+00  0.2610361E+01  0.1241224E+00 -0.7293094E-01
  0.1475240E+02 -0.7885330E+01  0.0000000E+00  0.1392195E+00  0.2622010E+01  0.1208462E+00 -0.6912497E-01
  0.1545430E+02 -0.6401380E+01  0.0000000E+00  0.1338371E+00  0.2635560E+01  0.1170639E+00 -0.6487226E-01
  0.1600730E+02 -0.4855760E+01  0.0000000E+00  0.1285670E+00  0.2646402E+01  0.1131233E+00 -0.6109501E-01
  0.1640620E+02 -0.3263390E+01  0.0000000E+00  0.1235053E+00  0.2651859E+01  0.1089882E+00 -0.5809570E-01
  0.1664710E+02 -0.1639590E+01  0.0000000E+00  0.1183041E+00  0.2654668E+01  0.1045544E+00 -0.5535571E-01
  0.1672760E+02  0.0000000E+00 -0.2568960E-01  0.1127409E+00  0.2656897E+01  0.9975498E-01 -0.5253042E-01
  0.1664710E+02  0.1639590E+01 -0.2568960E-01  0.1070697E+00  0.2660394E+01  0.9491099E-01 -0.4955636E-01
  0.1640620E+02  0.3263390E+01 -0.2568960E-01  0.1011375E+00  0.2666257E+01  0.8992530E-01 -0.4628427E-01
  0.1600730E+02  0.4855770E+01 -0.2568960E-01  0.9499128E-01  0.2665960E+01  0.8444756E-01 -0.4349661E-01
  0.1545430E+02  0.6401380E+01 -0.2568960E-01  0.8878580E-01  0.2657207E+01  0.7857201E-01 -0.4134439E-01
  0.1475240E+02  0.7885340E+01 -0.2568960E-01  0.8233480E-01  0.2646295E+01  0.7244039E-01 -0.3913323E-01
  0.1390850E+02  0.9293360E+01 -0.2568960E-01  0.7523333E-01  0.2650982E+01  0.6635920E-01 -0.3544730E-01
  0.1293060E+02  0.1061190E+02 -0.2568960E-01  0.6712309E-01  0.2698359E+01  0.6063697E-01 -0.2878660E-01
  0.1182820E+02  0.1182820E+02 -0.2568960E-01  0.5897814E-01  0.2756173E+01  0.5465155E-01 -0.2217271E-01
  0.1061190E+02  0.1293060E+02 -0.2568960E-01  0.5081033E-01  0.2848983E+01  0.4865061E-01 -0.1465634E-01
  0.9293360E+01  0.1390850E+02 -0.2568960E-01  0.4344612E-01  0.3045590E+01  0.4324606E-01 -0.4164533E-02
  0.7885330E+01  0.1475240E+02 -0.2568960E-01  0.3938477E-01 -0.2935448E+01  0.3855089E-01  0.8061571E-02
  0.6401380E+01  0.1545430E+02 -0.2568960E-01  0.4341058E-01 -0.2524520E+01  0.3540461E-01  0.2511955E-01
  0.4855770E+01  0.1600730E+02 -0.2568960E-01  0.6089555E-01 -0.2174259E+01  0.3455802E-01  0.5013991E-01
  0.3263390E+01  0.1640620E+02 -0.2568960E-01  0.9758702E-01 -0.1984404E+01  0.3922172E-01  0.8935817E-01
  0.1639590E+01  0.1664710E+02 -0.2568960E-01  0.1499191E+00 -0.1888686E+01  0.4685917E-01  0.1424077E+00
 -0.7311870E-06  0.1672760E+02 -0.2568960E-01  0.1889458E+00 -0.1809489E+01  0.4467295E-01  0.1835888E+00
 -0.1639590E+01  0.1664710E+02 -0.2568960E-01  0.2102350E+00 -0.1705558E+01  0.2824599E-01  0.2083289E+00
 -0.3263390E+01  0.1640620E+02 -0.2568960E-01  0.2205790E+00 -0.1573411E+01  0.5767063E-03  0.2205782E+00
 -0.4855770E+01  0.1600730E+02 -0.2568960E-01  0.2250161E+00 -0.1456282E+01 -0.2571134E-01  0.2235423E+00
 -0.6401380E+01  0.1545430E+02 -0.2568960E-01  0.2293575E+00 -0.1368604E+01 -0.4605905E-01  0.2246851E+00
 -0.7885340E+01  0.1475240E+02 -0.2568960E-01  0.2321352E+00 -0.1295279E+01 -0.6315107E-01  0.2233801E+00
 -0.9293360E+01  0.1390850E+02 -0.2568960E-01  0.2344076E+00 -0.1233423E+01 -0.7759120E-01  0.2211934E+00
 -0.1061190E+02  0.1293060E+02 -0.2568960E-01  0.2373958E+00 -0.1182569E+01 -0.8986586E-01  0.2197292E+00
 -0.1182820E+02  0.1182820E+02 -0.2568960E-01  0.2392504E+00 -0.1137982E+01 -0.1003481E+00  0.2171889E+00
 -0.1293060E+02  0.1061190E+02 -0.2568960E-01  0.2407503E+00 -0.1098863E+01 -0.1094472E+00  0.2144341E+00
 -0.1390850E+02  0.9293360E+01 -0.2568960E-01  0.2421588E+00 -0.1064208E+01 -0.1174947E+00  0.2117449E+00
 -0.1475240E+02  0.7885330E+01 -0.2568960E-01  0.2416820E+00 -0.1032911E+01 -0.1238188E+00  0.2075551E+00
 -0.1545430E+02  0.6401370E+01 -0.2568960E-01  0.2401226E+00 -0.1005845E+01 -0.1285556E+00  0.2028111E+00
 -0.1600730E+02  0.4855770E+01 -0.2568960E-01  0.2383926E+00 -0.9841073E+00 -0.1319757E+00  0.1985282E+00
 -0.1640620E+02  0.3263390E+01 -0.2568960E-01  0.2368742E+00 -0.9677913E+00 -0.1343361E+00  0.1950979E+00
 -0.1664710E+02  0.1639590E+01 -0.2568960E-01  0.2351062E+00 -0.9556509E+00 -0.1356745E+00  0.1920088E+00
 -0.1672760E+02 -0.1462370E-05 -0.2568960E-01  0.2325771E+00 -0.9479332E+00 -0.1356769E+00  0.1889018E+00
 -0.1664710E+02 -0.1639590E+01 -0.2568960E-01  0.2290951E+00 -0.9441988E+00 -0.1343396E+00  0.1855733E+00
 -0.1640620E+02 -0.3263400E+01 -0.2568960E-01  0.2246312E+00 -0.9442072E+00 -0.1317204E+00  0.1819585E+00
 -0.1600730E+02 -0.4855770E+01 -0.2568960E-01  0.2202972E+00 -0.9483498E+00 -0.1284387E+00  0.1789815E+00
 -0.1545430E+02 -0.6401380E+01 -0.2568960E-01  0.2163159E+00 -0.9568837E+00 -0.1246131E+00  0.1768167E+00
 -0.1475240E+02 -0.7885340E+01 -0.2568960E-01  0.2119084E+00 -0.9692094E+00 -0.1199298E+00  0.1747054E+00
 -0.1390850E+02 -0.9293360E+01 -0.2568960E-01  0.2053411E+00 -0.9850787E+00 -0.1135121E+00  0.1711140E+00
 -0.1293060E+02 -0.1061190E+02 -0.2568960E-01  0.1948232E+00 -0.1005366E+01 -0.1043821E+00  0.1645006E+00
 -0.1182820E+02 -0.1182820E+02 -0.2568960E-01  0.1842074E+00 -0.1030488E+01 -0.9475646E-01  0.1579671E+00
 -0.1061190E+02 -0.1293060E+02 -0.2568960E-01  0.1724364E+00 -0.1061252E+01 -0.8411091E-01  0.1505312E+00
 -0.9293350E+01 -0.1390850E+02 -0.2568960E-01  0.1570001E+00 -0.1102218E+01 -0.7090417E-01  0.1400772E+00
 -0.7885340E+01 -0.1475240E+02 -0.2568960E-01  0.1396260E+00 -0.1156564E+01 -0.5619762E-01  0.1278172E+00
 -0.6401370E+01 -0.1545430E+02 -0.2568960E-01  0.1168287E+00 -0.1242565E+01 -0.3766193E-01  0.1105917E+00
 -0.4855760E+01 -0.1600730E+02 -0.2568960E-01  0.8620298E-01 -0.1419092E+01 -0.1302729E-01  0.8521293E-01
 -0.3263390E+01 -0.1640620E+02 -0.2568960E-01  0.5078169E-01 -0.2040042E+01  0.2296416E-01  0.4529268E-01
 -0.1639590E+01 -0.1664710E+02 -0.2568960E-01  0.7050557E-01  0.3020689E+01  0.6999089E-01 -0.8503597E-02
  0.1994750E-06 -0.1672760E+02 -0.2568960E-01  0.1173833E+00  0.2704421E+01  0.1063437E+00 -0.4969766E-01
  0.1639600E+01 -0.1664710E+02 -0.2568960E-01  0.1464774E+00  0.2615769E+01  0.1266899E+00 -0.7352071E-01
  0.3263390E+01 -0.1640620E+02 -0.2568960E-01  0.1580563E+00  0.2579918E+01  0.1337733E+00 -0.8418141E-01
  0.4855770E+01 -0.1600730E+02 -0.2568960E-01  0.1587262E+00  0.2570501E+01  0.1335382E+00 -0.8579955E-01
  0.6401380E+01 -0.1545430E+02 -0.2568960E-01  0.1586941E+00  0.2568240E+01  0.1333169E+00 -0.8608381E-01
  0.7885340E+01 -0.1475240E+02 -0.2568960E-01  0.1566072E+00  0.2573726E+01  0.1320278E+00 -0.8422878E-01
  0.9293360E+01 -0.1390850E+02 -0.2568960E-01  0.1539852E+00  0.2581909E+01  0.1304906E+00 -0.8175351E-01
  0.1061190E+02 -0.1293060E+02 -0.2568960E-01  0.1524532E+00  0.2587470E+01  0.1296404E+00 -0.8022054E-01
  0.1182820E+02 -0.1182820E+02 -0.2568960E-01  0.1497913E+00  0.2595668E+01  0.1280187E+00 -0.7777297E-01
  0.1293060E+02 -0.1061190E+02 -0.2568960E-01  0.1468625E+00  0.2603800E+01  0.1261316E+00 -0.7522910E-01
  0.1390850E+02 -0.9293360E+01 -0.2568960E-01  0.1437662E+00  0.2610378E+01  0.1239541E+00 -0.7282930E-01
  0.1475240E+02 -0.7885330E+01 -0.2568960E-01  0.1390335E+00  0.2622008E+01  0.1206846E+00 -0.6903286E-01
  0.1545430E+02 -0.6401380E+01 -0.2568960E-01  0.1336653E+00  0.2635519E+01  0.1169110E+00 -0.6479383E-01
  0.1600730E+02 -0.4855760E+01 -0.2568960E-01  0.1284077E+00  0.2646328E+01  0.1129786E+00 -0.6102766E-01
  0.1640620E+02 -0.3263390E+01 -0.2568960E-01  0.1233531E+00  0.2651764E+01  0.1088484E+00 -0.5803451E-01
  0.1664710E+02 -0.1639590E+01 -0.2568960E-01  0.1181600E+00  0.2654570E+01  0.1044215E+00 -0.5529854E-01
  0.1672760E+02  0.0000000E+00 -0.1027320E+00  0.1123373E+00  0.2656437E+01  0.9937384E-01 -0.5238806E-01
  0.1664710E+02  0.1639590E+01 -0.1027320E+00  0.1066853E+00  0.2659873E+01  0.9454446E-01 -0.4942771E-01
  0.1640620E+02  0.3263390E+01 -0.1027320E+00  0.1007738E+00  0.2665647E+01  0.8957377E-01 -0.4617250E-01
  0.1600730E+02  0.4855770E+01 -0.1027320E+00  0.9464730E-01  0.2665391E+01  0.8411709E-01 -0.4338694E-01
  0.1545430E+02  0.6401380E+01 -0.1027320E+00  0.8845560E-01  0.2656864E+01  0.7826565E-01 -0.4121746E-01
  0.1475240E+02  0.7885340E+01 -0.1027320E+00  0.8201661E-01  0.2646289E+01  0.7216021E-01 -0.3898241E-01
  0.1390850E+02  0.9293360E+01 -0.1027320E+00  0.7493552E-01  0.2651127E+01  0.6610164E-01 -0.3529738E-01
  0.1293060E+02  0.1061190E+02 -0.1027320E+00  0.6686688E-01  0.2698001E+01  0.6039523E-01 -0.2869837E-01
  0.1182820E+02  0.1182820E+02 -0.1027320E+00  0.5875560E-01  0.2755710E+01  0.5443510E-01 -0.2211427E-01
  0.1061190E+02  0.1293060E+02 -0.1027320E+00  0.5062006E-01  0.2848737E+01  0.4846482E-01 -0.1461340E-01
  0.9293360E+01  0.1390850E+02 -0.1027320E+00  0.4328308E-01  0.3044664E+01  0.4307991E-01 -0.4188823E-02
  0.7885330E+01  0.1475240E+02 -0.1027320E+00  0.3923369E-01 -0.2936134E+01  0.3840851E-01  0.8004307E-02
  0.6401380E+01  0.1545430E+02 -0.1027320E+00  0.4322497E-01 -0.2525177E+01  0.3526967E-01  0.2498897E-01
  0.4855770E+01  0.1600730E+02 -0.1027320E+00  0.6062127E-01 -0.2174857E+01  0.3443221E-01  0.4989349E-01
  0.3263390E+01  0.1640620E+02 -0.1027320E+00  0.9719972E-01 -0.1984656E+01  0.3908845E-01  0.8899370E-01
  0.1639590E+01  0.1664710E+02 -0.1027320E+00  0.1493885E+00 -0.1889027E+01  0.4674170E-01  0.1418877E+00
 -0.7311870E-06  0.1672760E+02 -0.1027320E+00  0.1882562E+00 -0.1809742E+01  0.4455617E-01  0.1829074E+00
 -0.1639590E+01  0.1664710E+02 -0.1027320E+00  0.2094837E+00 -0.1705865E+01  0.2820877E-01  0.2075757E+00
 -0.3263390E+01  0.1640620E+02 -0.1027320E+00  0.2197252E+00 -0.1573529E+01  0.6004804E-03  0.2197244E+00
 -0.4855770E+01  0.1600730E+02 -0.1027320E+00  0.2241591E+00 -0.1456390E+01 -0.2558931E-01  0.2226937E+00
 -0.6401380E+01  0.1545430E+02 -0.1027320E+00  0.2284513E+00 -0.1368665E+01 -0.4586333E-01  0.2238002E+00
 -0.7885340E+01  0.1475240E+02 -0.1027320E+00  0.2312208E+00 -0.1295367E+01 -0.6288281E-01  0.2225057E+00
 -0.9293360E+01  0.1390850E+02 -0.1027320E+00  0.2334908E+00 -0.1233516E+01 -0.7726730E-01  0.2203355E+00
 -0.1061190E+02  0.1293060E+02 -0.1027320E+00  0.2364455E+00 -0.1182636E+01 -0.8949129E-01  0.2188556E+00
 -0.1182820E+02  0.1182820E+02 -0.1027320E+00  0.2382938E+00 -0.1138026E+01 -0.9993731E-01  0.2163249E+00
 -0.1293060E+02  0.1061190E+02 -0.1027320E+00  0.2397825E+00 -0.1098887E+01 -0.1090021E+00  0.2135748E+00
 -0.1390850E+02  0.9293360E+01 -0.1027320E+00  0.2411679E+00 -0.1064227E+01 -0.1170098E+00  0.2108806E+00
 -0.1475240E+02  0.7885330E+01 -0.1027320E+00  0.2407063E+00 -0.1032953E+01 -0.1233102E+00  0.2067222E+00
 -0.1545430E+02  0.6401370E+01 -0.1027320E+00  0.2391791E+00 -0.1005915E+01 -0.1280363E+00  0.2020231E+00
 -0.1600730E+02  0.4855770E+01 -0.1027320E+00  0.2374758E+00 -0.9841987E+00 -0.1314501E+00  0.1977767E+00
 -0.1640620E+02  0.3263390E+01 -0.1027320E+00  0.2359701E+00 -0.9678874E+00 -0.1338047E+00  0.1943662E+00
 -0.1664710E+02  0.1639590E+01 -0.1027320E+00  0.2342091E+00 -0.9557556E+00 -0.1351367E+00  0.1912903E+00
 -0.1672760E+02 -0.1462370E-05 -0.1027320E+00  0.2316924E+00 -0.9480302E+00 -0.1351425E+00  0.1881964E+00
 -0.1664710E+02 -0.1639590E+01 -0.1027320E+00  0.2282289E+00 -0.9442887E+00 -0.1338150E+00  0.1848837E+00
 -0.1640620E+02 -0.3263400E+01 -0.1027320E+00  0.2237892E+00 -0.9442862E+00 -0.1312124E+00  0.1812869E+00
 -0.1600730E+02 -0.4855770E+01 -0.1027320E+00  0.2194632E+00 -0.9484138E+00 -0.1279410E+00  0.1783121E+00
 -0.1545430E+02 -0.6401380E+01 -0.1027320E+00  0.2154694E+00 -0.9569295E+00 -0.1241174E+00  0.1761304E+00
 -0.1475240E+02 -0.7885340E+01 -0.1027320E+00  0.2110402E+00 -0.9692495E+00 -0.1194315E+00  0.1739944E+00
 -0.1390850E+02 -0.9293360E+01 -0.1027320E+00  0.2044837E+00 -0.9851150E+00 -0.1130319E+00  0.1704036E+00
 -0.1293060E+02 -0.1061190E+02 -0.1027320E+00  0.1940520E+00 -0.1005388E+01 -0.1039655E+00  0.1638516E+00
 -0.1182820E+02 -0.1182820E+02 -0.1027320E+00  0.1834828E+00 -0.1030507E+01 -0.9438067E-01  0.1573474E+00
 -0.1061190E+02 -0.1293060E+02 -0.1027320E+00  0.1717405E+00 -0.1061287E+01 -0.8376631E-01  0.1499267E+00
 -0.9293350E+01 -0.1390850E+02 -0.1027320E+00  0.1563981E+00 -0.1102211E+01 -0.7063320E-01  0.1395396E+00
 -0.7885340E+01 -0.1475240E+02 -0.1027320E+00  0.1390732E+00 -0.1156583E+01 -0.5597283E-01  0.1273122E+00
 -0.6401370E+01 -0.1545430E+02 -0.1027320E+00  0.1163746E+00 -0.1242544E+01 -0.3751795E-01  0.1101610E+00
 -0.4855760E+01 -0.1600730E+02 -0.1027320E+00  0.8588755E-01 -0.1418919E+01 -0.1299432E-01  0.8489887E-01
 -0.3263390E+01 -0.1640620E+02 -0.1027320E+00  0.5057324E-01 -0.2040378E+01  0.2288508E-01  0.4509906E-01
 -0.1639590E+01 -0.1664710E+02 -0.1027320E+00  0.7029363E-01  0.3019764E+01  0.6977262E-01 -0.8542621E-02
  0.1994750E-06 -0.1672760E+02 -0.1027320E+00  0.1170028E+00  0.2704066E+01  0.1059814E+00 -0.4957410E-01
  0.1639600E+01 -0.1664710E+02 -0.1027320E+00  0.1460189E+00  0.2615459E+01  0.1262706E+00 -0.7332971E-01
  0.3263390E+01 -0.1640620E+02 -0.1027320E+00  0.1574764E+00  0.2579769E+01  0.1332699E+00 -0.8389249E-01
  0.4855770E+01 -0.1600730E+02 -0.1027320E+00  0.1581627E+00  0.2570309E+01  0.1330477E+00 -0.8552052E-01
  0.6401380E+01 -0.1545430E+02 -0.1027320E+00  0.1580917E+00  0.2568134E+01  0.1328017E+00 -0.8577119E-01
  0.7885340E+01 -0.1475240E+02 -0.1027320E+00  0.1560193E+00  0.2573597E+01  0.1315213E+00 -0.8392950E-01
  0.9293360E+01 -0.1390850E+02 -0.1027320E+00  0.1534165E+00  0.2581757E+01  0.1299963E+00 -0.8147135E-01
  0.1061190E+02 -0.1293060E+02 -0.1027320E+00  0.1518645E+00  0.2587373E+01  0.1291321E+00 -0.7992318E-01
  0.1182820E+02 -0.1182820E+02 -0.1027320E+00  0.1492117E+00  0.2595569E+01  0.1275158E+00 -0.7748469E-01
  0.1293060E+02 -0.1061190E+02 -0.1027320E+00  0.1462868E+00  0.2603714E+01  0.1256307E+00 -0.7494490E-01
  0.1390850E+02 -0.9293360E+01 -0.1027320E+00  0.1431856E+00  0.2610348E+01  0.1234513E+00 -0.7253880E-01
  0.1475240E+02 -0.7885330E+01 -0.1027320E+00  0.1384850E+00  0.2621912E+01  0.1202019E+00 -0.6877209E-01
  0.1545430E+02 -0.6401380E+01 -0.1027320E+00  0.1331611E+00  0.2635293E+01  0.1164554E+00 -0.6457577E-01
  0.1600730E+02 -0.4855760E+01 -0.1027320E+00  0.1279390E+00  0.2645989E+01  0.1125457E+00 -0.6084303E-01
  0.1640620E+02 -0.3263390E+01 -0.1027320E+00  0.1229091E+00  0.2651373E+01  0.1084341E+00 -0.5786801E-01
  0.1664710E+02 -0.1639590E+01 -0.1027320E+00  0.1177366E+00  0.2654145E+01  0.1040239E+00 -0.5514457E-01
  0.1672760E+02  0.0000000E+00 -0.2310450E+00  0.1116680E+00  0.2655673E+01  0.9874198E-01 -0.5215143E-01
  0.1664710E+02  0.1639590E+01 -0.2310450E+00  0.1060504E+00  0.2659024E+01  0.9394003E-01 -0.4921335E-01
  0.1640620E+02  0.3263390E+01 -0.2310450E+00  0.1001728E+00  0.2664658E+01  0.8899411E-01 -0.4598511E-01
  0.1600730E+02  0.4855770E+01 -0.2310450E+00  0.9407831E-01  0.2664477E+01  0.8357193E-01 -0.4320255E-01
  0.1545430E+02  0.6401380E+01 -0.2310450E+00  0.8790799E-01  0.2656326E+01  0.7775906E-01 -0.4100418E-01
  0.1475240E+02  0.7885340E+01 -0.2310450E+00  0.8148752E-01  0.2646315E+01  0.7169573E-01 -0.3872903E-01
  0.1390850E+02  0.9293360E+01 -0.2310450E+00  0.7444172E-01  0.2651421E+01  0.6567635E-01 -0.3504549E-01
  0.1293060E+02  0.1061190E+02 -0.2310450E+00  0.6644066E-01  0.2697442E+01  0.5999432E-01 -0.2854895E-01
  0.1182820E+02  0.1182820E+02 -0.2310450E+00  0.5838580E-01  0.2755002E+01  0.5407691E-01 -0.2201339E-01
  0.1061190E+02  0.1293060E+02 -0.2310450E+00  0.5030360E-01  0.2848396E+01  0.4815689E-01 -0.1453843E-01
  0.9293360E+01  0.1390850E+02 -0.2310450E+00  0.4301028E-01  0.3043198E+01  0.4280225E-01 -0.4225177E-02
  0.7885330E+01  0.1475240E+02 -0.2310450E+00  0.3898165E-01 -0.2937171E+01  0.3816999E-01  0.7913291E-02
  0.6401380E+01  0.1545430E+02 -0.2310450E+00  0.4291921E-01 -0.2526122E+01  0.3504361E-01  0.2477910E-01
  0.4855770E+01  0.1600730E+02 -0.2310450E+00  0.6016938E-01 -0.2175776E+01  0.3422105E-01  0.4949014E-01
  0.3263390E+01  0.1640620E+02 -0.2310450E+00  0.9656186E-01 -0.1985021E+01  0.3886427E-01  0.8839548E-01
  0.1639590E+01  0.1664710E+02 -0.2310450E+00  0.1484651E+00 -0.1889494E+01  0.4651856E-01  0.1409891E+00
 -0.7311870E-06  0.1672760E+02 -0.2310450E+00  0.1870975E+00 -0.1810097E+01  0.4434651E-01  0.1817660E+00
 -0.1639590E+01  0.1664710E+02 -0.2310450E+00  0.2082182E+00 -0.1706243E+01  0.2811639E-01  0.2063112E+00
 -0.3263390E+01  0.1640620E+02 -0.2310450E+00  0.2183077E+00 -0.1573702E+01  0.6342415E-03  0.2183068E+00
 -0.4855770E+01  0.1600730E+02 -0.2310450E+00  0.2227413E+00 -0.1456555E+01 -0.2539094E-01  0.2212894E+00
 -0.6401380E+01  0.1545430E+02 -0.2310450E+00  0.2269495E+00 -0.1368751E+01 -0.4554275E-01  0.2223329E+00
 -0.7885340E+01  0.1475240E+02 -0.2310450E+00  0.2297074E+00 -0.1295503E+01 -0.6244119E-01  0.2210578E+00
 -0.9293360E+01  0.1390850E+02 -0.2310450E+00  0.2319737E+00 -0.1233661E+01 -0.7673354E-01  0.2189150E+00
 -0.1061190E+02  0.1293060E+02 -0.2310450E+00  0.2348733E+00 -0.1182736E+01 -0.8887460E-01  0.2174093E+00
 -0.1182820E+02  0.1182820E+02 -0.2310450E+00  0.2367112E+00 -0.1138095E+01 -0.9925876E-01  0.2148951E+00
 -0.1293060E+02  0.1061190E+02 -0.2310450E+00  0.2381809E+00 -0.1098924E+01 -0.1082662E+00  0.2121522E+00
 -0.1390850E+02  0.9293360E+01 -0.2310450E+00  0.2395272E+00 -0.1064252E+01 -0.1162086E+00  0.2094490E+00
 -0.1475240E+02  0.7885330E+01 -0.2310450E+00  0.2390909E+00 -0.1033015E+01 -0.1224699E+00  0.2053426E+00
 -0.1545430E+02  0.6401370E+01 -0.2310450E+00  0.2376163E+00 -0.1006036E+01 -0.1271754E+00  0.2007185E+00
 -0.1600730E+02  0.4855770E+01 -0.2310450E+00  0.2359563E+00 -0.9843500E+00 -0.1305793E+00  0.1965310E+00
 -0.1640620E+02  0.3263390E+01 -0.2310450E+00  0.2344720E+00 -0.9680496E+00 -0.1329239E+00  0.1931537E+00
 -0.1664710E+02  0.1639590E+01 -0.2310450E+00  0.2327234E+00 -0.9559268E+00 -0.1342469E+00  0.1900998E+00
 -0.1672760E+02 -0.1462370E-05 -0.2310450E+00  0.2302248E+00 -0.9481977E+00 -0.1342552E+00  0.1870267E+00
 -0.1664710E+02 -0.1639590E+01 -0.2310450E+00  0.2267906E+00 -0.9444397E+00 -0.1329440E+00  0.1837386E+00
 -0.1640620E+02 -0.3263400E+01 -0.2310450E+00  0.2223915E+00 -0.9444160E+00 -0.1303695E+00  0.1801715E+00
 -0.1600730E+02 -0.4855770E+01 -0.2310450E+00  0.2180788E+00 -0.9485226E+00 -0.1271147E+00  0.1772011E+00
 -0.1545430E+02 -0.6401380E+01 -0.2310450E+00  0.2140620E+00 -0.9570115E+00 -0.1232923E+00  0.1749901E+00
 -0.1475240E+02 -0.7885340E+01 -0.2310450E+00  0.2095983E+00 -0.9693139E+00 -0.1186044E+00  0.1728133E+00
 -0.1390850E+02 -0.9293360E+01 -0.2310450E+00  0.2030594E+00 -0.9851727E+00 -0.1122348E+00  0.1692231E+00
 -0.1293060E+02 -0.1061190E+02 -0.2310450E+00  0.1927714E+00 -0.1005423E+01 -0.1032737E+00  0.1627740E+00
 -0.1182820E+02 -0.1182820E+02 -0.2310450E+00  0.1822785E+00 -0.1030529E+01 -0.9375764E-01  0.1563168E+00
 -0.1061190E+02 -0.1293060E+02 -0.2310450E+00  0.1705844E+00 -0.1061333E+01 -0.8319554E-01  0.1489212E+00
 -0.9293350E+01 -0.1390850E+02 -0.2310450E+00  0.1553969E+00 -0.1102193E+01 -0.7018360E-01  0.1386451E+00
 -0.7885340E+01 -0.1475240E+02 -0.2310450E+00  0.1381546E+00 -0.1156598E+01 -0.5560112E-01  0.1264722E+00
 -0.6401370E+01 -0.1545430E+02 -0.2310450E+00  0.1156161E+00 -0.1242490E+01 -0.3727930E-01  0.1094411E+00
 -0.4855760E+01 -0.1600730E+02 -0.2310450E+00  0.8536023E-01 -0.1418621E+01 -0.1293964E-01  0.8437378E-01
 -0.3263390E+01 -0.1640620E+02 -0.2310450E+00  0.5022237E-01 -0.2040955E+01  0.2275213E-01  0.4477306E-01
 -0.1639590E+01 -0.1664710E+02 -0.2310450E+00  0.6990079E-01  0.3018719E+01  0.6937377E-01 -0.8567375E-02
  0.1994750E-06 -0.1672760E+02 -0.2310450E+00  0.1163507E+00  0.2703520E+01  0.1053638E+00 -0.4935534E-01
  0.1639600E+01 -0.1664710E+02 -0.2310450E+00  0.1452271E+00  0.2614964E+01  0.1255498E+00 -0.7299428E-01
  0.3263390E+01 -0.1640620E+02 -0.2310450E+00  0.1565096E+00  0.2579519E+01  0.1324309E+00 -0.8341052E-01
  0.4855770E+01 -0.1600730E+02 -0.2310450E+00  0.1572267E+00  0.2569968E+01  0.1322313E+00 -0.8505950E-01
  0.6401380E+01 -0.1545430E+02 -0.2310450E+00  0.1570896E+00  0.2567940E+01  0.1319433E+00 -0.8525312E-01
  0.7885340E+01 -0.1475240E+02 -0.2310450E+00  0.1550414E+00  0.2573360E+01  0.1306771E+00 -0.8343454E-01
  0.9293360E+01 -0.1390850E+02 -0.2310450E+00  0.1524694E+00  0.2581475E+01  0.1291709E+00 -0.8100490E-01
  0.1061190E+02 -0.1293060E+02 -0.2310450E+00  0.1508870E+00  0.2587196E+01  0.1282869E+00 -0.7943153E-01
  0.1182820E+02 -0.1182820E+02 -0.2310450E+00  0.1482504E+00  0.2595387E+01  0.1266802E+00 -0.7700844E-01
  0.1293060E+02 -0.1061190E+02 -0.2310450E+00  0.1453295E+00  0.2603554E+01  0.1247967E+00 -0.7447456E-01
  0.1390850E+02 -0.9293360E+01 -0.2310450E+00  0.1422217E+00  0.2610287E+01  0.1226159E+00 -0.7205800E-01
  0.1475240E+02 -0.7885330E+01 -0.2310450E+00  0.1375761E+00  0.2621748E+01  0.1194018E+00 -0.6834027E-01
  0.1545430E+02 -0.6401380E+01 -0.2310450E+00  0.1323259E+00  0.2634910E+01  0.1157004E+00 -0.6421503E-01
  0.1600730E+02 -0.4855760E+01 -0.2310450E+00  0.1271619E+00  0.2645415E+01  0.1118273E+00 -0.6053768E-01
  0.1640620E+02 -0.3263390E+01 -0.2310450E+00  0.1221725E+00  0.2650710E+01  0.1077460E+00 -0.5759264E-01
  0.1664710E+02 -0.1639590E+01 -0.2310450E+00  0.1170342E+00  0.2653433E+01  0.1033643E+00 -0.5488915E-01
  0.1672760E+02  0.0000000E+00 -0.4105000E+00  0.1107440E+00  0.2654532E+01  0.9786586E-01 -0.5183157E-01
  0.1664710E+02  0.1639590E+01 -0.4105000E+00  0.1051729E+00  0.2657763E+01  0.9310116E-01 -0.4892360E-01
  0.1640620E+02  0.3263390E+01 -0.4105000E+00  0.9934268E-01  0.2663207E+01  0.8819041E-01 -0.4573206E-01
  0.1600730E+02  0.4855770E+01 -0.4105000E+00  0.9329028E-01  0.2663131E+01  0.8281420E-01 -0.4295212E-01
  0.1545430E+02  0.6401380E+01 -0.4105000E+00  0.8715052E-01  0.2655531E+01  0.7705670E-01 -0.4071214E-01
  0.1475240E+02  0.7885340E+01 -0.4105000E+00  0.8075465E-01  0.2646327E+01  0.7105138E-01 -0.3837986E-01
  0.1390850E+02  0.9293360E+01 -0.4105000E+00  0.7375634E-01  0.2651829E+01  0.6508584E-01 -0.3469628E-01
  0.1293060E+02  0.1061190E+02 -0.4105000E+00  0.6584941E-01  0.2696679E+01  0.5943883E-01 -0.2834025E-01
  0.1182820E+02  0.1182820E+02 -0.4105000E+00  0.5787041E-01  0.2754036E+01  0.5357846E-01 -0.2187083E-01
  0.1061190E+02  0.1293060E+02 -0.4105000E+00  0.4986293E-01  0.2847981E+01  0.4772904E-01 -0.1443087E-01
  0.9293360E+01  0.1390850E+02 -0.4105000E+00  0.4263103E-01  0.3041248E+01  0.4241658E-01 -0.4270627E-02
  0.7885330E+01  0.1475240E+02 -0.4105000E+00  0.3863171E-01 -0.2938517E+01  0.3783786E-01  0.7791359E-02
  0.6401380E+01  0.1545430E+02 -0.4105000E+00  0.4249369E-01 -0.2527407E+01  0.3472768E-01  0.2448881E-01
  0.4855770E+01  0.1600730E+02 -0.4105000E+00  0.5955269E-01 -0.2176961E+01  0.3392835E-01  0.4894272E-01
  0.3263390E+01  0.1640620E+02 -0.4105000E+00  0.9567770E-01 -0.1985482E+01  0.3854880E-01  0.8756834E-01
  0.1639590E+01  0.1664710E+02 -0.4105000E+00  0.1471241E+00 -0.1890021E+01  0.4617210E-01  0.1396912E+00
 -0.7311870E-06  0.1672760E+02 -0.4105000E+00  0.1854530E+00 -0.1810474E+01  0.4402454E-01  0.1801517E+00
 -0.1639590E+01  0.1664710E+02 -0.4105000E+00  0.2064308E+00 -0.1706612E+01  0.2795041E-01  0.2045299E+00
 -0.3263390E+01  0.1640620E+02 -0.4105000E+00  0.2163326E+00 -0.1573918E+01  0.6753856E-03  0.2163316E+00
 -0.4855770E+01  0.1600730E+02 -0.4105000E+00  0.2207672E+00 -0.1456775E+01 -0.2511758E-01  0.2193336E+00
 -0.6401380E+01  0.1545430E+02 -0.4105000E+00  0.2248685E+00 -0.1368857E+01 -0.4510170E-01  0.2202990E+00
 -0.7885340E+01  0.1475240E+02 -0.4105000E+00  0.2276085E+00 -0.1295669E+01 -0.6183423E-01  0.2190482E+00
 -0.9293360E+01  0.1390850E+02 -0.4105000E+00  0.2298720E+00 -0.1233847E+01 -0.7599795E-01  0.2169458E+00
 -0.1061190E+02  0.1293060E+02 -0.4105000E+00  0.2326963E+00 -0.1182864E+01 -0.8802321E-01  0.2154054E+00
 -0.1182820E+02  0.1182820E+02 -0.4105000E+00  0.2345225E+00 -0.1138178E+01 -0.9832342E-01  0.2129162E+00