 VARIABLES="X" "Y" "Z" "abs(eta) (m)" "angle(phi) (rad)" "PRE1" "PRE2"
ZONE N=   3200 ,E =    3136 ,F=FEPOINT,ET=QUADRILATERAL
  0.1672760E+02  0.0000000E+00  0.0000000E+00  0.1659548E+00  0.1915964E+01  0.5615161E-01 -0.1561666E+00
  0.1664710E+02  0.1639590E+01  0.0000000E+00  0.1677121E+00  0.1918094E+01  0.5708218E-01 -0.1576990E+00
  0.1640620E+02  0.3263390E+01  0.0000000E+00  0.1699123E+00  0.1918625E+01  0.5791577E-01 -0.1597372E+00
  0.1600730E+02  0.4855770E+01  0.0000000E+00  0.1723518E+00  0.1917903E+01  0.5863030E-01 -0.1620729E+00
  0.1545430E+02  0.6401380E+01  0.0000000E+00  0.1746026E+00  0.1916603E+01  0.5918248E-01 -0.1642665E+00
  0.1475240E+02  0.7885340E+01  0.0000000E+00  0.1745829E+00  0.1917194E+01  0.5927297E-01 -0.1642130E+00
  0.1390850E+02  0.9293360E+01  0.0000000E+00  0.1728623E+00  0.1918737E+01  0.5893954E-01 -0.1625039E+00
  0.1293060E+02  0.1061190E+02  0.0000000E+00  0.1712431E+00  0.1919550E+01  0.5851829E-01 -0.1609342E+00
  0.1182820E+02  0.1182820E+02  0.0000000E+00  0.1696722E+00  0.1919866E+01  0.5803186E-01 -0.1594395E+00
  0.1061190E+02  0.1293060E+02  0.0000000E+00  0.1671528E+00  0.1920940E+01  0.5733893E-01 -0.1570105E+00
  0.9293360E+01  0.1390850E+02  0.0000000E+00  0.1633364E+00  0.1922584E+01  0.5628195E-01 -0.1533333E+00
  0.7885330E+01  0.1475240E+02  0.0000000E+00  0.1591072E+00  0.1924777E+01  0.5515205E-01 -0.1492426E+00
  0.6401380E+01  0.1545430E+02  0.0000000E+00  0.1504226E+00  0.1932366E+01  0.5321099E-01 -0.1406967E+00
  0.4855770E+01  0.1600730E+02  0.0000000E+00  0.1363197E+00  0.1948640E+01  0.5029061E-01 -0.1267040E+00
  0.3263390E+01  0.1640620E+02  0.0000000E+00  0.1113546E+00  0.1988182E+01  0.4514003E-01 -0.1017951E+00
  0.1639590E+01  0.1664710E+02  0.0000000E+00  0.6905552E-01  0.2122343E+01  0.3618545E-01 -0.5881563E-01
 -0.7311870E-06  0.1672760E+02  0.0000000E+00  0.2733408E-01  0.2815386E+01  0.2589261E-01 -0.8759264E-02
 -0.1639590E+01  0.1664710E+02  0.0000000E+00  0.4985636E-01 -0.1878225E+01  0.1508698E-01  0.4751884E-01
 -0.3263390E+01  0.1640620E+02  0.0000000E+00  0.1062362E+00 -0.1613705E+01  0.4557061E-02  0.1061384E+00
 -0.4855770E+01  0.1600730E+02  0.0000000E+00  0.1446992E+00 -0.1552213E+01 -0.2688842E-02  0.1446743E+00
 -0.6401380E+01  0.1545430E+02  0.0000000E+00  0.1677299E+00 -0.1524822E+01 -0.7708613E-02  0.1675526E+00
 -0.7885340E+01  0.1475240E+02  0.0000000E+00  0.1829557E+00 -0.1507223E+01 -0.1162336E-01  0.1825861E+00
 -0.9293360E+01  0.1390850E+02  0.0000000E+00  0.1922083E+00 -0.1494779E+01 -0.1459700E-01  0.1916532E+00
 -0.1061190E+02  0.1293060E+02  0.0000000E+00  0.2004265E+00 -0.1484134E+01 -0.1734765E-01  0.1996743E+00
 -0.1182820E+02  0.1182820E+02  0.0000000E+00  0.2063517E+00 -0.1475185E+01 -0.1969947E-01  0.2054092E+00
 -0.1293060E+02  0.1061190E+02  0.0000000E+00  0.2109631E+00 -0.1467716E+01 -0.2170768E-01  0.2098433E+00
 -0.1390850E+02  0.9293360E+01  0.0000000E+00  0.2155625E+00 -0.1461543E+01 -0.2350404E-01  0.2142773E+00
 -0.1475240E+02  0.7885330E+01  0.0000000E+00  0.2202136E+00 -0.1456746E+01 -0.2506112E-01  0.2187829E+00
 -0.1545430E+02  0.6401370E+01  0.0000000E+00  0.2227771E+00 -0.1453464E+01 -0.2607912E-01  0.2212454E+00
 -0.1600730E+02  0.4855770E+01  0.0000000E+00  0.2227960E+00 -0.1451404E+01 -0.2653702E-01  0.2212100E+00
 -0.1640620E+02  0.3263390E+01  0.0000000E+00  0.2225421E+00 -0.1450484E+01 -0.2670997E-01  0.2209334E+00
 -0.1664710E+02  0.1639590E+01  0.0000000E+00  0.2225920E+00 -0.1450824E+01 -0.2664092E-01  0.2209920E+00
 -0.1672760E+02 -0.1462370E-05  0.0000000E+00  0.2233501E+00 -0.1452551E+01 -0.2634857E-01  0.2217905E+00
 -0.1664710E+02 -0.1639590E+01  0.0000000E+00  0.2248199E+00 -0.1456026E+01 -0.2574606E-01  0.2233409E+00
 -0.1640620E+02 -0.3263400E+01  0.0000000E+00  0.2267439E+00 -0.1461444E+01 -0.2474562E-01  0.2253896E+00
 -0.1600730E+02 -0.4855770E+01  0.0000000E+00  0.2289218E+00 -0.1468656E+01 -0.2334159E-01  0.2277287E+00
 -0.1545430E+02 -0.6401380E+01  0.0000000E+00  0.2309233E+00 -0.1477417E+01 -0.2153225E-01  0.2299172E+00
 -0.1475240E+02 -0.7885340E+01  0.0000000E+00  0.2306648E+00 -0.1486748E+01 -0.1936427E-01  0.2298505E+00
 -0.1390850E+02 -0.9293360E+01  0.0000000E+00  0.2287411E+00 -0.1496905E+01 -0.1688651E-01  0.2281169E+00
 -0.1293060E+02 -0.1061190E+02  0.0000000E+00  0.2269473E+00 -0.1508958E+01 -0.1402518E-01  0.2265135E+00
 -0.1182820E+02 -0.1182820E+02  0.0000000E+00  0.2252348E+00 -0.1522946E+01 -0.1077341E-01  0.2249770E+00
 -0.1061190E+02 -0.1293060E+02  0.0000000E+00  0.2226094E+00 -0.1538627E+01 -0.7159938E-02  0.2224942E+00
 -0.9293350E+01 -0.1390850E+02  0.0000000E+00  0.2187695E+00 -0.1555766E+01 -0.3288044E-02  0.2187448E+00
 -0.7885340E+01 -0.1475240E+02  0.0000000E+00  0.2145660E+00 -0.1575255E+01  0.9566727E-03  0.2145638E+00
 -0.6401370E+01 -0.1545430E+02  0.0000000E+00  0.2059739E+00 -0.1596848E+01  0.5365400E-02  0.2059040E+00
 -0.4855760E+01 -0.1600730E+02  0.0000000E+00  0.1920155E+00 -0.1622373E+01  0.9899036E-02  0.1917602E+00
 -0.3263390E+01 -0.1640620E+02  0.0000000E+00  0.1672349E+00 -0.1655200E+01  0.1409853E-01  0.1666395E+00
 -0.1639590E+01 -0.1664710E+02  0.0000000E+00  0.1246123E+00 -0.1708633E+01  0.1712175E-01  0.1234304E+00
  0.1994750E-06 -0.1672760E+02  0.0000000E+00  0.7578223E-01 -0.1828792E+01  0.1933533E-01  0.7327408E-01
  0.1639600E+01 -0.1664710E+02  0.0000000E+00  0.2723748E-01 -0.2464689E+01  0.2123205E-01  0.1706108E-01
  0.3263390E+01 -0.1640620E+02  0.0000000E+00  0.4742644E-01  0.2082052E+01  0.2320447E-01 -0.4136206E-01
  0.4855770E+01 -0.1600730E+02  0.0000000E+00  0.8381195E-01  0.1884855E+01  0.2589129E-01 -0.7971252E-01
  0.6401380E+01 -0.1545430E+02  0.0000000E+00  0.1064590E+00  0.1845770E+01  0.2890594E-01 -0.1024595E+00
  0.7885340E+01 -0.1475240E+02  0.0000000E+00  0.1216679E+00  0.1836640E+01  0.3196494E-01 -0.1173939E+00
  0.9293360E+01 -0.1390850E+02  0.0000000E+00  0.1311535E+00  0.1841341E+01  0.3505165E-01 -0.1263829E+00
  0.1061190E+02 -0.1293060E+02  0.0000000E+00  0.1396075E+00  0.1846385E+01  0.3798905E-01 -0.1343394E+00
  0.1182820E+02 -0.1182820E+02  0.0000000E+00  0.1458347E+00  0.1854104E+01  0.4076563E-01 -0.1400211E+00
  0.1293060E+02 -0.1061190E+02  0.0000000E+00  0.1507847E+00  0.1862619E+01  0.4338056E-01 -0.1444097E+00
  0.1390850E+02 -0.9293360E+01  0.0000000E+00  0.1556955E+00  0.1869493E+01  0.4581733E-01 -0.1488014E+00
  0.1475240E+02 -0.7885330E+01  0.0000000E+00  0.1606329E+00  0.1874744E+01  0.4807571E-01 -0.1532699E+00
  0.1545430E+02 -0.6401380E+01  0.0000000E+00  0.1635917E+00  0.1882583E+01  0.5018337E-01 -0.1557044E+00
  0.1600730E+02 -0.4855760E+01  0.0000000E+00  0.1641231E+00  0.1893614E+01  0.5206639E-01 -0.1556453E+00
  0.1640620E+02 -0.3263390E+01  0.0000000E+00  0.1643664E+00  0.1903561E+01  0.5369156E-01 -0.1553497E+00
  0.1664710E+02 -0.1639590E+01  0.0000000E+00  0.1648523E+00  0.1911288E+01  0.5505249E-01 -0.1553882E+00
  0.1672760E+02  0.0000000E+00 -0.2568960E-01  0.1658465E+00  0.1915950E+01  0.5611273E-01 -0.1560654E+00
  0.1664710E+02  0.1639590E+01 -0.2568960E-01  0.1675995E+00  0.1918077E+01  0.5704121E-01 -0.1575941E+00
  0.1640620E+02  0.3263390E+01 -0.2568960E-01  0.1697924E+00  0.1918629E+01  0.5787564E-01 -0.1596241E+00
  0.1600730E+02  0.4855770E+01 -0.2568960E-01  0.1722213E+00  0.1917922E+01  0.5858898E-01 -0.1619491E+00
  0.1545430E+02  0.6401380E+01 -0.2568960E-01  0.1744611E+00  0.1916631E+01  0.5913921E-01 -0.1641317E+00
  0.1475240E+02  0.7885340E+01 -0.2568960E-01  0.1744454E+00  0.1917215E+01  0.5922971E-01 -0.1640824E+00
  0.1390850E+02  0.9293360E+01 -0.2568960E-01  0.1727378E+00  0.1918748E+01  0.5889900E-01 -0.1623861E+00
  0.1293060E+02  0.1061190E+02 -0.2568960E-01  0.1711251E+00  0.1919547E+01  0.5847759E-01 -0.1608234E+00
  0.1182820E+02  0.1182820E+02 -0.2568960E-01  0.1695552E+00  0.1919864E+01  0.5799165E-01 -0.1593297E+00
  0.1061190E+02  0.1293060E+02 -0.2568960E-01  0.1670373E+00  0.1920944E+01  0.5729982E-01 -0.1569018E+00
  0.9293360E+01  0.1390850E+02 -0.2568960E-01  0.1632325E+00  0.1922576E+01  0.5624491E-01 -0.1532363E+00
  0.7885330E+01  0.1475240E+02 -0.2568960E-01  0.1589957E+00  0.1924775E+01  0.5511311E-01 -0.1491381E+00
  0.6401380E+01  0.1545430E+02 -0.2568960E-01  0.1503288E+00  0.1932359E+01  0.5317681E-01 -0.1406093E+00
  0.4855770E+01  0.1600730E+02 -0.2568960E-01  0.1362406E+00  0.1948614E+01  0.5025824E-01 -0.1266318E+00
  0.3263390E+01  0.1640620E+02 -0.2568960E-01  0.1112770E+00  0.1988179E+01  0.4510826E-01 -0.1017242E+00
  0.1639590E+01  0.1664710E+02 -0.2568960E-01  0.6900735E-01  0.2122323E+01  0.3615905E-01 -0.5877531E-01
 -0.7311870E-06  0.1672760E+02 -0.2568960E-01  0.2731946E-01  0.2815008E+01  0.2587545E-01 -0.8764359E-02
 -0.1639590E+01  0.1664710E+02 -0.2568960E-01  0.4980148E-01 -0.1878413E+01  0.1507928E-01  0.4746370E-01
 -0.3263390E+01  0.1640620E+02 -0.2568960E-01  0.1061480E+00 -0.1613727E+01  0.4555608E-02  0.1060502E+00
 -0.4855770E+01  0.1600730E+02 -0.2568960E-01  0.1446099E+00 -0.1552200E+01 -0.2689065E-02  0.1445849E+00
 -0.6401380E+01  0.1545430E+02 -0.2568960E-01  0.1676214E+00 -0.1524820E+01 -0.7703952E-02  0.1674443E+00
 -0.7885340E+01  0.1475240E+02 -0.2568960E-01  0.1828258E+00 -0.1507228E+01 -0.1161420E-01  0.1824565E+00
 -0.9293360E+01  0.1390850E+02 -0.2568960E-01  0.1920831E+00 -0.1494775E+01 -0.1458841E-01  0.1915284E+00
 -0.1061190E+02  0.1293060E+02 -0.2568960E-01  0.2002850E+00 -0.1484133E+01 -0.1733573E-01  0.1995334E+00
 -0.1182820E+02  0.1182820E+02 -0.2568960E-01  0.2062083E+00 -0.1475185E+01 -0.1968577E-01  0.2052665E+00
 -0.1293060E+02  0.1061190E+02 -0.2568960E-01  0.2108180E+00 -0.1467717E+01 -0.2169252E-01  0.2096989E+00
 -0.1390850E+02  0.9293360E+01 -0.2568960E-01  0.2154074E+00 -0.1461551E+01 -0.2348557E-01  0.2141233E+00
 -0.1475240E+02  0.7885330E+01 -0.2568960E-01  0.2200419E+00 -0.1456746E+01 -0.2504149E-01  0.2186123E+00
 -0.1545430E+02  0.6401370E+01 -0.2568960E-01  0.2225990E+00 -0.1453467E+01 -0.2605749E-01  0.2210686E+00
 -0.1600730E+02  0.4855770E+01 -0.2568960E-01  0.2226279E+00 -0.1451402E+01 -0.2651736E-01  0.2210430E+00
 -0.1640620E+02  0.3263390E+01 -0.2568960E-01  0.2223842E+00 -0.1450485E+01 -0.2669093E-01  0.2207766E+00
 -0.1664710E+02  0.1639590E+01 -0.2568960E-01  0.2224405E+00 -0.1450823E+01 -0.2662304E-01  0.2208416E+00
 -0.1672760E+02 -0.1462370E-05 -0.2568960E-01  0.2232003E+00 -0.1452559E+01 -0.2632906E-01  0.2216420E+00
 -0.1664710E+02 -0.1639590E+01 -0.2568960E-01  0.2246658E+00 -0.1456030E+01 -0.2572742E-01  0.2231879E+00
 -0.1640620E+02 -0.3263400E+01 -0.2568960E-01  0.2265821E+00 -0.1461446E+01 -0.2472754E-01  0.2252288E+00
 -0.1600730E+02 -0.4855770E+01 -0.2568960E-01  0.2287491E+00 -0.1468655E+01 -0.2332405E-01  0.2275569E+00
 -0.1545430E+02 -0.6401380E+01 -0.2568960E-01  0.2307399E+00 -0.1477414E+01 -0.2151571E-01  0.2297346E+00
 -0.1475240E+02 -0.7885340E+01 -0.2568960E-01  0.2304854E+00 -0.1486748E+01 -0.1934923E-01  0.2296718E+00
 -0.1390850E+02 -0.9293360E+01 -0.2568960E-01  0.2285751E+00 -0.1496914E+01 -0.1687226E-01  0.2279515E+00
 -0.1293060E+02 -0.1061190E+02 -0.2568960E-01  0.2267891E+00 -0.1508961E+01 -0.1401466E-01  0.2263557E+00
 -0.1182820E+02 -0.1182820E+02 -0.2568960E-01  0.2250774E+00 -0.1522955E+01 -0.1076388E-01  0.2248199E+00
 -0.1061190E+02 -0.1293060E+02 -0.2568960E-01  0.2224528E+00 -0.1538635E+01 -0.7153166E-02  0.2223378E+00
 -0.9293350E+01 -0.1390850E+02 -0.2568960E-01  0.2186242E+00 -0.1555777E+01 -0.3283535E-02  0.2185996E+00
 -0.7885340E+01 -0.1475240E+02 -0.2568960E-01  0.2144143E+00 -0.1575263E+01  0.9576440E-03  0.2144121E+00
 -0.6401370E+01 -0.1545430E+02 -0.2568960E-01  0.2058384E+00 -0.1596850E+01  0.5362175E-02  0.2057686E+00
 -0.4855760E+01 -0.1600730E+02 -0.2568960E-01  0.1918956E+00 -0.1622379E+01  0.9894066E-02  0.1916404E+00
 -0.3263390E+01 -0.1640620E+02 -0.2568960E-01  0.1671159E+00 -0.1655198E+01  0.1408812E-01  0.1665210E+00
 -0.1639590E+01 -0.1664710E+02 -0.2568960E-01  0.1245240E+00 -0.1708642E+01  0.1711084E-01  0.1233428E+00
  0.1994750E-06 -0.1672760E+02 -0.2568960E-01  0.7573850E-01 -0.1828765E+01  0.1932216E-01  0.7323233E-01
  0.1639600E+01 -0.1664710E+02 -0.2568960E-01  0.2723167E-01 -0.2464180E+01  0.2121883E-01  0.1706825E-01
  0.3263390E+01 -0.1640620E+02 -0.2568960E-01  0.4738249E-01  0.2082191E+01  0.2318872E-01 -0.4132050E-01
  0.4855770E+01 -0.1600730E+02 -0.2568960E-01  0.8376462E-01  0.1884802E+01  0.2587250E-01 -0.7966885E-01
  0.6401380E+01 -0.1545430E+02 -0.2568960E-01  0.1063943E+00  0.1845744E+01  0.2888564E-01 -0.1023981E+00
  0.7885340E+01 -0.1475240E+02 -0.2568960E-01  0.1215824E+00  0.1836642E+01  0.3194276E-01 -0.1173113E+00
  0.9293360E+01 -0.1390850E+02 -0.2568960E-01  0.1310729E+00  0.1841314E+01  0.3502662E-01 -0.1263061E+00
  0.1061190E+02 -0.1293060E+02 -0.2568960E-01  0.1395105E+00  0.1846386E+01  0.3796280E-01 -0.1342461E+00
  0.1182820E+02 -0.1182820E+02 -0.2568960E-01  0.1457348E+00  0.1854094E+01  0.4073628E-01 -0.1399256E+00
  0.1293060E+02 -0.1061190E+02 -0.2568960E-01  0.1506829E+00  0.1862612E+01  0.4335020E-01 -0.1443125E+00
  0.1390850E+02 -0.9293360E+01 -0.2568960E-01  0.1555845E+00  0.1869490E+01  0.4578409E-01 -0.1486955E+00
  0.1475240E+02 -0.7885330E+01 -0.2568960E-01  0.1605059E+00  0.1874772E+01  0.4804193E-01 -0.1531474E+00
  0.1545430E+02 -0.6401380E+01 -0.2568960E-01  0.1634578E+00  0.1882618E+01  0.5014776E-01 -0.1555753E+00
  0.1600730E+02 -0.4855760E+01 -0.2568960E-01  0.1639986E+00  0.1893626E+01  0.5202882E-01 -0.1555267E+00
  0.1640620E+02 -0.3263390E+01 -0.2568960E-01  0.1642510E+00  0.1903564E+01  0.5365430E-01 -0.1552405E+00
  0.1664710E+02 -0.1639590E+01 -0.2568960E-01  0.1647432E+00  0.1911277E+01  0.5501440E-01 -0.1552859E+00
  0.1672760E+02  0.0000000E+00 -0.1027320E+00  0.1655370E+00  0.1915873E+01  0.5599594E-01 -0.1557785E+00
  0.1664710E+02  0.1639590E+01 -0.1027320E+00  0.1672787E+00  0.1918022E+01  0.5692337E-01 -0.1572955E+00
  0.1640620E+02  0.3263390E+01 -0.1027320E+00  0.1694466E+00  0.1918602E+01  0.5775353E-01 -0.1593007E+00
  0.1600730E+02  0.4855770E+01 -0.1027320E+00  0.1718429E+00  0.1917938E+01  0.5846300E-01 -0.1615923E+00
  0.1545430E+02  0.6401380E+01 -0.1027320E+00  0.1740487E+00  0.1916680E+01  0.5900748E-01 -0.1637409E+00
  0.1475240E+02  0.7885340E+01 -0.1027320E+00  0.1740432E+00  0.1917253E+01  0.5909937E-01 -0.1637019E+00
  0.1390850E+02  0.9293360E+01 -0.1027320E+00  0.1723761E+00  0.1918752E+01  0.5877627E-01 -0.1620459E+00
  0.1293060E+02  0.1061190E+02 -0.1027320E+00  0.1707838E+00  0.1919533E+01  0.5835866E-01 -0.1605035E+00
  0.1182820E+02  0.1182820E+02 -0.1027320E+00  0.1692144E+00  0.1919855E+01  0.5787360E-01 -0.1590099E+00
  0.1061190E+02  0.1293060E+02 -0.1027320E+00  0.1666995E+00  0.1920923E+01  0.5718075E-01 -0.1565857E+00
  0.9293360E+01  0.1390850E+02 -0.1027320E+00  0.1629260E+00  0.1922534E+01  0.5613279E-01 -0.1529510E+00
  0.7885330E+01  0.1475240E+02 -0.1027320E+00  0.1586685E+00  0.1924769E+01  0.5499884E-01 -0.1488315E+00
  0.6401380E+01  0.1545430E+02 -0.1027320E+00  0.1500504E+00  0.1932310E+01  0.5307144E-01 -0.1403515E+00
  0.4855770E+01  0.1600730E+02 -0.1027320E+00  0.1360046E+00  0.1948548E+01  0.5016277E-01 -0.1264158E+00
  0.3263390E+01  0.1640620E+02 -0.1027320E+00  0.1110581E+00  0.1988141E+01  0.4501563E-01 -0.1015258E+00
  0.1639590E+01  0.1664710E+02 -0.1027320E+00  0.6886475E-01  0.2122270E+01  0.3608122E-01 -0.5865576E-01
 -0.7311870E-06  0.1672760E+02 -0.1027320E+00  0.2727507E-01  0.2813868E+01  0.2582342E-01 -0.8779566E-02
 -0.1639590E+01  0.1664710E+02 -0.1027320E+00  0.4963802E-01 -0.1878925E+01  0.1505400E-01  0.4730022E-01
 -0.3263390E+01  0.1640620E+02 -0.1027320E+00  0.1058991E+00 -0.1613773E+01  0.4549732E-02  0.1058013E+00
 -0.4855770E+01  0.1600730E+02 -0.1027320E+00  0.1443403E+00 -0.1552171E+01 -0.2688222E-02  0.1443153E+00
 -0.6401380E+01  0.1545430E+02 -0.1027320E+00  0.1672992E+00 -0.1524802E+01 -0.7692061E-02  0.1671222E+00
 -0.7885340E+01  0.1475240E+02 -0.1027320E+00  0.1824404E+00 -0.1507234E+01 -0.1158853E-01  0.1820720E+00
 -0.9293360E+01  0.1390850E+02 -0.1027320E+00  0.1917132E+00 -0.1494768E+01 -0.1456154E-01  0.1911593E+00
 -0.1061190E+02  0.1293060E+02 -0.1027320E+00  0.1998677E+00 -0.1484131E+01 -0.1729994E-01  0.1991176E+00
 -0.1182820E+02  0.1182820E+02 -0.1027320E+00  0.2057862E+00 -0.1475191E+01 -0.1964441E-01  0.2048464E+00
 -0.1293060E+02  0.1061190E+02 -0.1027320E+00  0.2103933E+00 -0.1467720E+01 -0.2164820E-01  0.2092766E+00
 -0.1390850E+02  0.9293360E+01 -0.1027320E+00  0.2149545E+00 -0.1461555E+01 -0.2343518E-01  0.2136731E+00
 -0.1475240E+02  0.7885330E+01 -0.1027320E+00  0.2195381E+00 -0.1456757E+01 -0.2498173E-01  0.2181121E+00
 -0.1545430E+02  0.6401370E+01 -0.1027320E+00  0.2220785E+00 -0.1453477E+01 -0.2599449E-01  0.2205519E+00
 -0.1600730E+02  0.4855770E+01 -0.1027320E+00  0.2221397E+00 -0.1451411E+01 -0.2645727E-01  0.2205585E+00
 -0.1640620E+02  0.3263390E+01 -0.1027320E+00  0.2219267E+00 -0.1450495E+01 -0.2663377E-01  0.2203227E+00
 -0.1664710E+02  0.1639590E+01 -0.1027320E+00  0.2220029E+00 -0.1450838E+01 -0.2656735E-01  0.2204075E+00
 -0.1672760E+02 -0.1462370E-05 -0.1027320E+00  0.2227663E+00 -0.1452573E+01 -0.2627495E-01  0.2212114E+00
 -0.1664710E+02 -0.1639590E+01 -0.1027320E+00  0.2242201E+00 -0.1456046E+01 -0.2567287E-01  0.2227455E+00
 -0.1640620E+02 -0.3263400E+01 -0.1027320E+00  0.2261124E+00 -0.1461460E+01 -0.2467299E-01  0.2247622E+00
 -0.1600730E+02 -0.4855770E+01 -0.1027320E+00  0.2282473E+00 -0.1468656E+01 -0.2327266E-01  0.2270577E+00
 -0.1545430E+02 -0.6401380E+01 -0.1027320E+00  0.2302036E+00 -0.1477402E+01 -0.2146847E-01  0.2292003E+00
 -0.1475240E+02 -0.7885340E+01 -0.1027320E+00  0.2299599E+00 -0.1486745E+01 -0.1930576E-01  0.2291481E+00
 -0.1390850E+02 -0.9293360E+01 -0.1027320E+00  0.2280888E+00 -0.1496928E+01 -0.1683327E-01  0.2274668E+00
 -0.1293060E+02 -0.1061190E+02 -0.1027320E+00  0.2263246E+00 -0.1508984E+01 -0.1398084E-01  0.2258924E+00
 -0.1182820E+02 -0.1182820E+02 -0.1027320E+00  0.2246147E+00 -0.1522971E+01 -0.1073825E-01  0.2243578E+00
 -0.1061190E+02 -0.1293060E+02 -0.1027320E+00  0.2219929E+00 -0.1538641E+01 -0.7136927E-02  0.2218782E+00
 -0.9293350E+01 -0.1390850E+02 -0.1027320E+00  0.2181965E+00 -0.1555797E+01 -0.3272768E-02  0.2181719E+00
 -0.7885340E+01 -0.1475240E+02 -0.1027320E+00  0.2139645E+00 -0.1575266E+01  0.9563690E-03  0.2139624E+00
 -0.6401370E+01 -0.1545430E+02 -0.1027320E+00  0.2054384E+00 -0.1596865E+01  0.5354969E-02  0.2053686E+00
 -0.4855760E+01 -0.1600730E+02 -0.1027320E+00  0.1915377E+00 -0.1622388E+01  0.9877285E-02  0.1912829E+00
 -0.3263390E+01 -0.1640620E+02 -0.1027320E+00  0.1667750E+00 -0.1655212E+01  0.1406173E-01  0.1661811E+00
 -0.1639590E+01 -0.1664710E+02 -0.1027320E+00  0.1242611E+00 -0.1708659E+01  0.1707677E-01  0.1230821E+00
  0.1994750E-06 -0.1672760E+02 -0.1027320E+00  0.7560551E-01 -0.1828716E+01  0.1928468E-01  0.7310468E-01
  0.1639600E+01 -0.1664710E+02 -0.1027320E+00  0.2721201E-01 -0.2462592E+01  0.2117641E-01  0.1708957E-01
  0.3263390E+01 -0.1640620E+02 -0.1027320E+00  0.4726728E-01  0.2082410E+01  0.2314133E-01 -0.4121498E-01
  0.4855770E+01 -0.1600730E+02 -0.1027320E+00  0.8362739E-01  0.1884640E+01  0.2581717E-01 -0.7954253E-01
  0.6401380E+01 -0.1545430E+02 -0.1027320E+00  0.1062045E+00  0.1845643E+01  0.2882380E-01 -0.1022183E+00
  0.7885340E+01 -0.1475240E+02 -0.1027320E+00  0.1213313E+00  0.1836641E+01  0.3187669E-01 -0.1170690E+00
  0.9293360E+01 -0.1390850E+02 -0.1027320E+00  0.1308344E+00  0.1841229E+01  0.3495216E-01 -0.1260793E+00
  0.1061190E+02 -0.1293060E+02 -0.1027320E+00  0.1392256E+00  0.1846369E+01  0.3788305E-01 -0.1339725E+00
  0.1182820E+02 -0.1182820E+02 -0.1027320E+00  0.1454443E+00  0.1854055E+01  0.4064960E-01 -0.1396484E+00
  0.1293060E+02 -0.1061190E+02 -0.1027320E+00  0.1503886E+00  0.1862555E+01  0.4325728E-01 -0.1440331E+00
  0.1390850E+02 -0.9293360E+01 -0.1027320E+00  0.1552621E+00  0.1869471E+01  0.4568644E-01 -0.1483882E+00
  0.1475240E+02 -0.7885330E+01 -0.1027320E+00  0.1601347E+00  0.1874830E+01  0.4793973E-01 -0.1527904E+00
  0.1545430E+02 -0.6401380E+01 -0.1027320E+00  0.1630690E+00  0.1882700E+01  0.5004117E-01 -0.1552011E+00
  0.1600730E+02 -0.4855760E+01 -0.1027320E+00  0.1636399E+00  0.1893650E+01  0.5191874E-01 -0.1551853E+00
  0.1640620E+02 -0.3263390E+01 -0.1027320E+00  0.1639201E+00  0.1903531E+01  0.5354104E-01 -0.1549296E+00
  0.1664710E+02 -0.1639590E+01 -0.1027320E+00  0.1644299E+00  0.1911212E+01  0.5489965E-01 -0.1549942E+00
  0.1672760E+02  0.0000000E+00 -0.2310450E+00  0.1650234E+00  0.1915752E+01  0.5580343E-01 -0.1553019E+00
  0.1664710E+02  0.1639590E+01 -0.2310450E+00  0.1667447E+00  0.1917934E+01  0.5672780E-01 -0.1567985E+00
  0.1640620E+02  0.3263390E+01 -0.2310450E+00  0.1688745E+00  0.1918567E+01  0.5755285E-01 -0.1587648E+00
  0.1600730E+02  0.4855770E+01 -0.2310450E+00  0.1712162E+00  0.1917961E+01  0.5825341E-01 -0.1610016E+00
  0.1545430E+02  0.6401380E+01 -0.2310450E+00  0.1733645E+00  0.1916777E+01  0.5879131E-01 -0.1630915E+00
  0.1475240E+02  0.7885340E+01 -0.2310450E+00  0.1733761E+00  0.1917330E+01  0.5888545E-01 -0.1630699E+00
  0.1390850E+02  0.9293360E+01 -0.2310450E+00  0.1717718E+00  0.1918757E+01  0.5857102E-01 -0.1614775E+00
  0.1293060E+02  0.1061190E+02 -0.2310450E+00  0.1702147E+00  0.1919520E+01  0.5816206E-01 -0.1599695E+00
  0.1182820E+02  0.1182820E+02 -0.2310450E+00  0.1686467E+00  0.1919825E+01  0.5767472E-01 -0.1584782E+00
  0.1061190E+02  0.1293060E+02 -0.2310450E+00  0.1661350E+00  0.1920894E+01  0.5698250E-01 -0.1560571E+00
  0.9293360E+01  0.1390850E+02 -0.2310450E+00  0.1624148E+00  0.1922467E+01  0.5594652E-01 -0.1524748E+00
  0.7885330E+01  0.1475240E+02 -0.2310450E+00  0.1581219E+00  0.1924751E+01  0.5480664E-01 -0.1483198E+00
  0.6401380E+01  0.1545430E+02 -0.2310450E+00  0.1495823E+00  0.1932241E+01  0.5289624E-01 -0.1399173E+00
  0.4855770E+01  0.1600730E+02 -0.2310450E+00  0.1356142E+00  0.1948412E+01  0.5000160E-01 -0.1260597E+00
  0.3263390E+01  0.1640620E+02 -0.2310450E+00  0.1106956E+00  0.1988065E+01  0.4486100E-01 -0.1011978E+00
  0.1639590E+01  0.1664710E+02 -0.2310450E+00  0.6863781E-01  0.2122148E+01  0.3595516E-01 -0.5846687E-01
 -0.7311870E-06  0.1672760E+02 -0.2310450E+00  0.2720053E-01  0.2812205E+01  0.2573825E-01 -0.8798374E-02
 -0.1639590E+01  0.1664710E+02 -0.2310450E+00  0.4939538E-01 -0.1879552E+01  0.1500995E-01  0.4705959E-01
 -0.3263390E+01  0.1640620E+02 -0.2310450E+00  0.1054955E+00 -0.1613822E+01  0.4537666E-02  0.1053979E+00
 -0.4855770E+01  0.1600730E+02 -0.2310450E+00  0.1438931E+00 -0.1552111E+01 -0.2688508E-02  0.1438680E+00
 -0.6401380E+01  0.1545430E+02 -0.2310450E+00  0.1667568E+00 -0.1524779E+01 -0.7670979E-02  0.1665802E+00
 -0.7885340E+01  0.1475240E+02 -0.2310450E+00  0.1817967E+00 -0.1507253E+01 -0.1154421E-01  0.1814298E+00
 -0.9293360E+01  0.1390850E+02 -0.2310450E+00  0.1910947E+00 -0.1494757E+01 -0.1451680E-01  0.1905425E+00
 -0.1061190E+02  0.1293060E+02 -0.2310450E+00  0.1991704E+00 -0.1484136E+01 -0.1723858E-01  0.1984230E+00
 -0.1182820E+02  0.1182820E+02 -0.2310450E+00  0.2050821E+00 -0.1475196E+01 -0.1957605E-01  0.2041456E+00
 -0.1293060E+02  0.1061190E+02 -0.2310450E+00  0.2096840E+00 -0.1467723E+01 -0.2157456E-01  0.2085711E+00
 -0.1390850E+02  0.9293360E+01 -0.2310450E+00  0.2141995E+00 -0.1461568E+01 -0.2335023E-01  0.2129230E+00
 -0.1475240E+02  0.7885330E+01 -0.2310450E+00  0.2187003E+00 -0.1456775E+01 -0.2488251E-01  0.2172802E+00
 -0.1545430E+02  0.6401370E+01 -0.2310450E+00  0.2212144E+00 -0.1453493E+01 -0.2588970E-01  0.2196942E+00
 -0.1600730E+02  0.4855770E+01 -0.2310450E+00  0.2213280E+00 -0.1451426E+01 -0.2635722E-01  0.2197530E+00
 -0.1640620E+02  0.3263390E+01 -0.2310450E+00  0.2211660E+00 -0.1450509E+01 -0.2653934E-01  0.2195679E+00
 -0.1664710E+02  0.1639590E+01 -0.2310450E+00  0.2212762E+00 -0.1450858E+01 -0.2647592E-01  0.2196866E+00
 -0.1672760E+02 -0.1462370E-05 -0.2310450E+00  0.2220466E+00 -0.1452603E+01 -0.2618325E-01  0.2204974E+00
 -0.1664710E+02 -0.1639590E+01 -0.2310450E+00  0.2234800E+00 -0.1456080E+01 -0.2558058E-01  0.2220111E+00
 -0.1640620E+02 -0.3263400E+01 -0.2310450E+00  0.2253331E+00 -0.1461477E+01 -0.2458425E-01  0.2239880E+00
 -0.1600730E+02 -0.4855770E+01 -0.2310450E+00  0.2274137E+00 -0.1468657E+01 -0.2318756E-01  0.2262285E+00
 -0.1545430E+02 -0.6401380E+01 -0.2310450E+00  0.2293129E+00 -0.1477389E+01 -0.2138843E-01  0.2283133E+00
 -0.1475240E+02 -0.7885340E+01 -0.2310450E+00  0.2290871E+00 -0.1486736E+01 -0.1923444E-01  0.2282782E+00
 -0.1390850E+02 -0.9293360E+01 -0.2310450E+00  0.2272816E+00 -0.1496948E+01 -0.1676909E-01  0.2266621E+00
 -0.1293060E+02 -0.1061190E+02 -0.2310450E+00  0.2255515E+00 -0.1509017E+01 -0.1392552E-01  0.2251212E+00
 -0.1182820E+02 -0.1182820E+02 -0.2310450E+00  0.2238436E+00 -0.1522998E+01 -0.1069534E-01  0.2235879E+00
 -0.1061190E+02 -0.1293060E+02 -0.2310450E+00  0.2212270E+00 -0.1538657E+01 -0.7108884E-02  0.2211128E+00
 -0.9293350E+01 -0.1390850E+02 -0.2310450E+00  0.2174823E+00 -0.1555826E+01 -0.3255737E-02  0.2174579E+00
 -0.7885340E+01 -0.1475240E+02 -0.2310450E+00  0.2132166E+00 -0.1575284E+01  0.9567833E-03  0.2132145E+00
 -0.6401370E+01 -0.1545430E+02 -0.2310450E+00  0.2047688E+00 -0.1596894E+01  0.5343437E-02  0.2046990E+00
 -0.4855760E+01 -0.1600730E+02 -0.2310450E+00  0.1909445E+00 -0.1622403E+01  0.9849597E-02  0.1906903E+00
 -0.3263390E+01 -0.1640620E+02 -0.2310450E+00  0.1662093E+00 -0.1655231E+01  0.1401719E-01  0.1656172E+00
 -0.1639590E+01 -0.1664710E+02 -0.2310450E+00  0.1238334E+00 -0.1708685E+01  0.1702113E-01  0.1226580E+00
  0.1994750E-06 -0.1672760E+02 -0.2310450E+00  0.7538153E-01 -0.1828635E+01  0.1922165E-01  0.7288967E-01
  0.1639600E+01 -0.1664710E+02 -0.2310450E+00  0.2716195E-01 -0.2460769E+01  0.2110632E-01  0.1709663E-01
  0.3263390E+01 -0.1640620E+02 -0.2310450E+00  0.4708117E-01  0.2082727E+01  0.2306326E-01 -0.4104537E-01
  0.4855770E+01 -0.1600730E+02 -0.2310450E+00  0.8339746E-01  0.1884387E+01  0.2572615E-01 -0.7933033E-01
  0.6401380E+01 -0.1545430E+02 -0.2310450E+00  0.1058816E+00  0.1845507E+01  0.2872238E-01 -0.1019114E+00
  0.7885340E+01 -0.1475240E+02 -0.2310450E+00  0.1209112E+00  0.1836641E+01  0.3176637E-01 -0.1166637E+00
  0.9293360E+01 -0.1390850E+02 -0.2310450E+00  0.1304357E+00  0.1841093E+01  0.3482860E-01 -0.1256998E+00
  0.1061190E+02 -0.1293060E+02 -0.2310450E+00  0.1387490E+00  0.1846341E+01  0.3774964E-01 -0.1335150E+00
  0.1182820E+02 -0.1182820E+02 -0.2310450E+00  0.1449587E+00  0.1854006E+01  0.4050703E-01 -0.1391840E+00
  0.1293060E+02 -0.1061190E+02 -0.2310450E+00  0.1498965E+00  0.1862490E+01  0.4310645E-01 -0.1435646E+00
  0.1390850E+02 -0.9293360E+01 -0.2310450E+00  0.1547251E+00  0.1869460E+01  0.4552678E-01 -0.1478756E+00
  0.1475240E+02 -0.7885330E+01 -0.2310450E+00  0.1595185E+00  0.1874949E+01  0.4777332E-01 -0.1521968E+00
  0.1545430E+02 -0.6401380E+01 -0.2310450E+00  0.1624250E+00  0.1882845E+01  0.4986597E-01 -0.1545809E+00
  0.1600730E+02 -0.4855760E+01 -0.2310450E+00  0.1630429E+00  0.1893688E+01  0.5173511E-01 -0.1546172E+00
  0.1640620E+02 -0.3263390E+01 -0.2310450E+00  0.1633692E+00  0.1903481E+01  0.5335332E-01 -0.1544116E+00
  0.1664710E+02 -0.1639590E+01 -0.2310450E+00  0.1639103E+00  0.1911089E+01  0.5470722E-01 -0.1545112E+00
  0.1672760E+02  0.0000000E+00 -0.4105000E+00  0.1643212E+00  0.1915558E+01  0.5553610E-01 -0.1546519E+00
  0.1664710E+02  0.1639590E+01 -0.4105000E+00  0.1660160E+00  0.1917788E+01  0.5645712E-01 -0.1561214E+00
  0.1640620E+02  0.3263390E+01 -0.4105000E+00  0.1680890E+00  0.1918487E+01  0.5727262E-01 -0.1580309E+00
  0.1600730E+02  0.4855770E+01 -0.4105000E+00  0.1703545E+00  0.1917983E+01  0.5796377E-01 -0.1601901E+00
  0.1545430E+02  0.6401380E+01 -0.4105000E+00  0.1724223E+00  0.1916877E+01  0.5848801E-01 -0.1621993E+00
  0.1475240E+02  0.7885340E+01 -0.4105000E+00  0.1724589E+00  0.1917403E+01  0.5858563E-01 -0.1622029E+00
  0.1390850E+02  0.9293360E+01 -0.4105000E+00  0.1709454E+00  0.1918754E+01  0.5828874E-01 -0.1607008E+00
  0.1293060E+02  0.1061190E+02 -0.4105000E+00  0.1694342E+00  0.1919462E+01  0.5788615E-01 -0.1592392E+00
  0.1182820E+02  0.1182820E+02 -0.4105000E+00  0.1678669E+00  0.1919775E+01  0.5740003E-01 -0.1577483E+00
  0.1061190E+02  0.1293060E+02 -0.4105000E+00  0.1653573E+00  0.1920828E+01  0.5670553E-01 -0.1553304E+00
  0.9293360E+01  0.1390850E+02 -0.4105000E+00  0.1617068E+00  0.1922359E+01  0.5568618E-01 -0.1518161E+00
  0.7885330E+01  0.1475240E+02 -0.4105000E+00  0.1573600E+00  0.1924722E+01  0.5453829E-01 -0.1476068E+00
  0.6401380E+01  0.1545430E+02 -0.4105000E+00  0.1489272E+00  0.1932146E+01  0.5265132E-01 -0.1393096E+00
  0.4855770E+01  0.1600730E+02 -0.4105000E+00  0.1350428E+00  0.1948259E+01  0.4977177E-01 -0.1255362E+00
  0.3263390E+01  0.1640620E+02 -0.4105000E+00  0.1101683E+00  0.1988010E+01  0.4464179E-01 -0.1007183E+00
  0.1639590E+01  0.1664710E+02 -0.4105000E+00  0.6831197E-01  0.2122060E+01  0.3577938E-01 -0.5819245E-01
 -0.7311870E-06  0.1672760E+02 -0.4105000E+00  0.2708439E-01  0.2810795E+01  0.2561596E-01 -0.8796952E-02
 -0.1639590E+01  0.1664710E+02 -0.4105000E+00  0.4909496E-01 -0.1880109E+01  0.1494470E-01  0.4676506E-01
 -0.3263390E+01  0.1640620E+02 -0.4105000E+00  0.1049357E+00 -0.1613909E+01  0.4522641E-02  0.1048382E+00
 -0.4855770E+01  0.1600730E+02 -0.4105000E+00  0.1432468E+00 -0.1552064E+01 -0.2683184E-02  0.1432217E+00
 -0.6401380E+01  0.1545430E+02 -0.4105000E+00  0.1659952E+00 -0.1524755E+01 -0.7639994E-02  0.1658193E+00
 -0.7885340E+01  0.1475240E+02 -0.4105000E+00  0.1808968E+00 -0.1507282E+01 -0.1148184E-01  0.1805321E+00
 -0.9293360E+01  0.1390850E+02 -0.4105000E+00  0.1902372E+00 -0.1494751E+01 -0.1445273E-01  0.1896874E+00
 -0.1061190E+02  0.1293060E+02 -0.4105000E+00  0.1982056E+00 -0.1484141E+01 -0.1715402E-01  0.1974619E+00
 -0.1182820E+02  0.1182820E+02 -0.4105000E+00  0.2041107E+00 -0.1475202E+01 -0.1948221E-01  0.2031787E+00