 VARIABLES="X" "Y" "Z" "abs(eta) (m)" "angle(phi) (rad)" "PRE1" "PRE2"
ZONE N=   3200 ,E =    3136 ,F=FEPOINT,ET=QUADRILATERAL
  0.1530690E+02  0.0000000E+00  0.0000000E+00  0.3291542E+00 -0.9734010E+00 -0.1851462E+00  0.2721458E+00
  0.1523320E+02  0.1500340E+01  0.0000000E+00  0.3311878E+00 -0.9827777E+00 -0.1837144E+00  0.2755620E+00
  0.1501280E+02  0.2986230E+01  0.0000000E+00  0.3330188E+00 -0.9963539E+00 -0.1809514E+00  0.2795677E+00
  0.1464780E+02  0.4443360E+01  0.0000000E+00  0.3346283E+00 -0.1014051E+01 -0.1768262E+00  0.2840925E+00
  0.1414170E+02  0.5857700E+01  0.0000000E+00  0.3355273E+00 -0.1035434E+01 -0.1711702E+00  0.2885816E+00
  0.1349950E+02  0.7215620E+01  0.0000000E+00  0.3342701E+00 -0.1059182E+01 -0.1636539E+00  0.2914685E+00
  0.1272720E+02  0.8504060E+01  0.0000000E+00  0.3318227E+00 -0.1086453E+01 -0.1545057E+00  0.2936568E+00
  0.1183240E+02  0.9710600E+01  0.0000000E+00  0.3290519E+00 -0.1118586E+01 -0.1437809E+00  0.2959767E+00
  0.1082360E+02  0.1082360E+02  0.0000000E+00  0.3263631E+00 -0.1155224E+01 -0.1317571E+00  0.2985849E+00
  0.9710590E+01  0.1183240E+02  0.0000000E+00  0.3228396E+00 -0.1196401E+01 -0.1180655E+00  0.3004762E+00
  0.8504060E+01  0.1272720E+02  0.0000000E+00  0.3180428E+00 -0.1244126E+01 -0.1020570E+00  0.3012235E+00
  0.7215620E+01  0.1349950E+02  0.0000000E+00  0.3152425E+00 -0.1300789E+01 -0.8408733E-01  0.3038209E+00
  0.5857700E+01  0.1414170E+02  0.0000000E+00  0.3096417E+00 -0.1364713E+01 -0.6336118E-01  0.3030896E+00
  0.4443360E+01  0.1464780E+02  0.0000000E+00  0.3034622E+00 -0.1442731E+01 -0.3875693E-01  0.3009771E+00
  0.2986230E+01  0.1501280E+02  0.0000000E+00  0.2970862E+00 -0.1555475E+01 -0.4551707E-02  0.2970514E+00
  0.1500340E+01  0.1523320E+02  0.0000000E+00  0.2671349E+00 -0.1757271E+01  0.4952578E-01  0.2625039E+00
 -0.6690860E-06  0.1530690E+02  0.0000000E+00  0.2290868E+00 -0.1886207E+01  0.7106429E-01  0.2177858E+00
 -0.1500340E+01  0.1523320E+02  0.0000000E+00  0.1681026E+00 -0.2035392E+01  0.7532024E-01  0.1502842E+00
 -0.2986230E+01  0.1501280E+02  0.0000000E+00  0.5495694E-01 -0.2856261E+01  0.5273493E-01  0.1546906E-01
 -0.4443360E+01  0.1464780E+02  0.0000000E+00  0.6192108E-01  0.2634090E+01  0.5411660E-01 -0.3009343E-01
 -0.5857700E+01  0.1414170E+02  0.0000000E+00  0.8215484E-01  0.2423320E+01  0.6185796E-01 -0.5406487E-01
 -0.7215620E+01  0.1349950E+02  0.0000000E+00  0.1003861E+00  0.2353172E+01  0.7076881E-01 -0.7119792E-01
 -0.8504060E+01  0.1272720E+02  0.0000000E+00  0.1144646E+00  0.2349648E+01  0.8040705E-01 -0.8146686E-01
 -0.9710590E+01  0.1183240E+02  0.0000000E+00  0.1288355E+00  0.2344010E+01  0.8998371E-01 -0.9220370E-01
 -0.1082360E+02  0.1082360E+02  0.0000000E+00  0.1408019E+00  0.2357955E+01  0.9973712E-01 -0.9938657E-01
 -0.1183240E+02  0.9710590E+01  0.0000000E+00  0.1515216E+00  0.2375671E+01  0.1092083E+00 -0.1050350E+00
 -0.1272720E+02  0.8504060E+01  0.0000000E+00  0.1621445E+00  0.2385817E+01  0.1179990E+00 -0.1112073E+00
 -0.1349950E+02  0.7215620E+01  0.0000000E+00  0.1722435E+00  0.2396717E+01  0.1266286E+00 -0.1167606E+00
 -0.1414170E+02  0.5857690E+01  0.0000000E+00  0.1810210E+00  0.2413308E+01  0.1350991E+00 -0.1204858E+00
 -0.1464780E+02  0.4443360E+01  0.0000000E+00  0.1877829E+00  0.2435770E+01  0.1429174E+00 -0.1218073E+00
 -0.1501280E+02  0.2986230E+01  0.0000000E+00  0.1939007E+00  0.2455294E+01  0.1500009E+00 -0.1228707E+00
 -0.1523320E+02  0.1500340E+01  0.0000000E+00  0.1999322E+00  0.2468486E+01  0.1563247E+00 -0.1246414E+00
 -0.1530690E+02 -0.1338170E-05  0.0000000E+00  0.2060216E+00  0.2475326E+01  0.1619607E+00 -0.1273327E+00
 -0.1523320E+02 -0.1500340E+01  0.0000000E+00  0.2120250E+00  0.2479665E+01  0.1672473E+00 -0.1303187E+00
 -0.1501280E+02 -0.2986230E+01  0.0000000E+00  0.2181818E+00  0.2480784E+01  0.1722538E+00 -0.1339102E+00
 -0.1464780E+02 -0.4443360E+01  0.0000000E+00  0.2243975E+00  0.2479048E+01  0.1769216E+00 -0.1380325E+00
 -0.1414170E+02 -0.5857700E+01  0.0000000E+00  0.2300975E+00  0.2475812E+01  0.1809568E+00 -0.1421250E+00
 -0.1349950E+02 -0.7215620E+01  0.0000000E+00  0.2336861E+00  0.2474179E+01  0.1835428E+00 -0.1446416E+00
 -0.1272720E+02 -0.8504060E+01  0.0000000E+00  0.2359084E+00  0.2471683E+01  0.1849233E+00 -0.1464792E+00
 -0.1183240E+02 -0.9710600E+01  0.0000000E+00  0.2379615E+00  0.2467310E+01  0.1858849E+00 -0.1485681E+00
 -0.1082360E+02 -0.1082360E+02  0.0000000E+00  0.2401224E+00  0.2461294E+01  0.1866675E+00 -0.1510431E+00
 -0.9710600E+01 -0.1183240E+02  0.0000000E+00  0.2413516E+00  0.2455313E+01  0.1867117E+00 -0.1529357E+00
 -0.8504050E+01 -0.1272720E+02  0.0000000E+00  0.2414039E+00  0.2450338E+01  0.1859888E+00 -0.1538961E+00
 -0.7215620E+01 -0.1349950E+02  0.0000000E+00  0.2438047E+00  0.2442369E+01  0.1865940E+00 -0.1569185E+00
 -0.5857690E+01 -0.1414170E+02  0.0000000E+00  0.2428379E+00  0.2439232E+01  0.1853628E+00 -0.1568785E+00
 -0.4443360E+01 -0.1464780E+02  0.0000000E+00  0.2414253E+00  0.2440130E+01  0.1844245E+00 -0.1558004E+00
 -0.2986230E+01 -0.1501280E+02  0.0000000E+00  0.2406290E+00  0.2448547E+01  0.1851167E+00 -0.1537339E+00
 -0.1500340E+01 -0.1523320E+02  0.0000000E+00  0.2064663E+00  0.2502933E+01  0.1657708E+00 -0.1230787E+00
  0.1825330E-06 -0.1530690E+02  0.0000000E+00  0.1515878E+00  0.2588102E+01  0.1289550E+00 -0.7968359E-01
  0.1500340E+01 -0.1523320E+02  0.0000000E+00  0.7369439E-01  0.2976721E+01  0.7269505E-01 -0.1209513E-01
  0.2986230E+01 -0.1501280E+02  0.0000000E+00  0.1292878E+00 -0.1319213E+01 -0.3218461E-01  0.1252178E+00
  0.4443360E+01 -0.1464780E+02  0.0000000E+00  0.1855751E+00 -0.1185698E+01 -0.6971133E-01  0.1719839E+00
  0.5857700E+01 -0.1414170E+02  0.0000000E+00  0.2170970E+00 -0.1131624E+01 -0.9230753E-01  0.1964954E+00
  0.7215620E+01 -0.1349950E+02  0.0000000E+00  0.2408250E+00 -0.1093746E+01 -0.1105775E+00  0.2139376E+00
  0.8504060E+01 -0.1272720E+02  0.0000000E+00  0.2563882E+00 -0.1065767E+01 -0.1240491E+00  0.2243808E+00
  0.9710600E+01 -0.1183240E+02  0.0000000E+00  0.2725123E+00 -0.1041535E+01 -0.1375904E+00  0.2352273E+00
  0.1082360E+02 -0.1082360E+02  0.0000000E+00  0.2842873E+00 -0.1021657E+01 -0.1483846E+00  0.2424897E+00
  0.1183240E+02 -0.9710590E+01  0.0000000E+00  0.2940106E+00 -0.1005148E+01 -0.1575789E+00  0.2482159E+00
  0.1272720E+02 -0.8504060E+01  0.0000000E+00  0.3041346E+00 -0.9915200E+00 -0.1664889E+00  0.2545178E+00
  0.1349950E+02 -0.7215620E+01  0.0000000E+00  0.3129915E+00 -0.9814092E+00 -0.1739768E+00  0.2601840E+00
  0.1414170E+02 -0.5857700E+01  0.0000000E+00  0.3191266E+00 -0.9743373E+00 -0.1792587E+00  0.2640229E+00
  0.1464780E+02 -0.4443350E+01  0.0000000E+00  0.3220476E+00 -0.9691795E+00 -0.1822713E+00  0.2655030E+00
  0.1501280E+02 -0.2986230E+01  0.0000000E+00  0.3241800E+00 -0.9668461E+00 -0.1841013E+00  0.2668321E+00
  0.1523320E+02 -0.1500330E+01  0.0000000E+00  0.3265098E+00 -0.9681205E+00 -0.1850818E+00  0.2689859E+00
  0.1530690E+02  0.0000000E+00 -0.2568960E-01  0.3287193E+00 -0.9734189E+00 -0.1848968E+00  0.2717896E+00
  0.1523320E+02  0.1500340E+01 -0.2568960E-01  0.3307485E+00 -0.9827932E+00 -0.1834664E+00  0.2751993E+00
  0.1501280E+02  0.2986230E+01 -0.2568960E-01  0.3325713E+00 -0.9963634E+00 -0.1807056E+00  0.2791938E+00
  0.1464780E+02  0.4443360E+01 -0.2568960E-01  0.3341700E+00 -0.1014053E+01 -0.1765834E+00  0.2837038E+00
  0.1414170E+02  0.5857700E+01 -0.2568960E-01  0.3350597E+00 -0.1035431E+01 -0.1709326E+00  0.2881789E+00
  0.1349950E+02  0.7215620E+01 -0.2568960E-01  0.3338101E+00 -0.1059180E+01 -0.1634292E+00  0.2910671E+00
  0.1272720E+02  0.8504060E+01 -0.2568960E-01  0.3313753E+00 -0.1086461E+01 -0.1542952E+00  0.2932620E+00
  0.1183240E+02  0.9710600E+01 -0.2568960E-01  0.3286132E+00 -0.1118600E+01 -0.1435851E+00  0.2955841E+00
  0.1082360E+02  0.1082360E+02 -0.2568960E-01  0.3259260E+00 -0.1155243E+01 -0.1315751E+00  0.2981874E+00
  0.9710590E+01  0.1183240E+02 -0.2568960E-01  0.3224087E+00 -0.1196425E+01 -0.1179009E+00  0.3000779E+00
  0.8504060E+01  0.1272720E+02 -0.2568960E-01  0.3176333E+00 -0.1244156E+01 -0.1019168E+00  0.3008386E+00
  0.7215620E+01  0.1349950E+02 -0.2568960E-01  0.3148233E+00 -0.1300808E+01 -0.8396982E-01  0.3034185E+00
  0.5857700E+01  0.1414170E+02 -0.2568960E-01  0.3092410E+00 -0.1364751E+01 -0.6326777E-01  0.3026998E+00
  0.4443360E+01  0.1464780E+02 -0.2568960E-01  0.3030801E+00 -0.1442789E+01 -0.3869070E-01  0.3006003E+00
  0.2986230E+01  0.1501280E+02 -0.2568960E-01  0.2967152E+00 -0.1555535E+01 -0.4528008E-02  0.2966807E+00
  0.1500340E+01  0.1523320E+02 -0.2568960E-01  0.2668060E+00 -0.1757299E+01  0.4947219E-01  0.2621793E+00
 -0.6690860E-06  0.1530690E+02 -0.2568960E-01  0.2287720E+00 -0.1886212E+01  0.7096773E-01  0.2174861E+00
 -0.1500340E+01  0.1523320E+02 -0.2568960E-01  0.1678775E+00 -0.2035486E+01  0.7523355E-01  0.1500759E+00
 -0.2986230E+01  0.1501280E+02 -0.2568960E-01  0.5489794E-01 -0.2856338E+01  0.5267951E-01  0.1544839E-01
 -0.4443360E+01  0.1464780E+02 -0.2568960E-01  0.6185219E-01  0.2634128E+01  0.5405753E-01 -0.3005789E-01
 -0.5857700E+01  0.1414170E+02 -0.2568960E-01  0.8205909E-01  0.2423229E+01  0.6178098E-01 -0.5400746E-01
 -0.7215620E+01  0.1349950E+02 -0.2568960E-01  0.1002599E+00  0.2353150E+01  0.7067826E-01 -0.7110993E-01
 -0.8504060E+01  0.1272720E+02 -0.2568960E-01  0.1143309E+00  0.2349499E+01  0.8030111E-01 -0.8138360E-01
 -0.9710590E+01  0.1183240E+02 -0.2568960E-01  0.1286694E+00  0.2344001E+01  0.8986688E-01 -0.9208557E-01
 -0.1082360E+02  0.1082360E+02 -0.2568960E-01  0.1406210E+00  0.2357918E+01  0.9960531E-01 -0.9926256E-01
 -0.1183240E+02  0.9710590E+01 -0.2568960E-01  0.1513286E+00  0.2375598E+01  0.1090616E+00 -0.1049091E+00
 -0.1272720E+02  0.8504060E+01 -0.2568960E-01  0.1619311E+00  0.2385798E+01  0.1178416E+00 -0.1110632E+00
 -0.1349950E+02  0.7215620E+01 -0.2568960E-01  0.1720089E+00  0.2396759E+01  0.1264610E+00 -0.1165962E+00
 -0.1414170E+02  0.5857690E+01 -0.2568960E-01  0.1807703E+00  0.2413359E+01  0.1349182E+00 -0.1203121E+00
 -0.1464780E+02  0.4443360E+01 -0.2568960E-01  0.1875289E+00  0.2435774E+01  0.1427246E+00 -0.1216420E+00
 -0.1501280E+02  0.2986230E+01 -0.2568960E-01  0.1936471E+00  0.2455262E+01  0.1498008E+00 -0.1227148E+00
 -0.1523320E+02  0.1500340E+01 -0.2568960E-01  0.1996752E+00  0.2468434E+01  0.1561173E+00 -0.1244893E+00
 -0.1530690E+02 -0.1338170E-05 -0.2568960E-01  0.2057568E+00  0.2475280E+01  0.1617466E+00 -0.1271766E+00
 -0.1523320E+02 -0.1500340E+01 -0.2568960E-01  0.2117508E+00  0.2479633E+01  0.1670268E+00 -0.1301555E+00
 -0.1501280E+02 -0.2986230E+01 -0.2568960E-01  0.2178957E+00  0.2480768E+01  0.1720257E+00 -0.1337374E+00
 -0.1464780E+02 -0.4443360E+01 -0.2568960E-01  0.2240925E+00  0.2479048E+01  0.1766812E+00 -0.1378449E+00
 -0.1414170E+02 -0.5857700E+01 -0.2568960E-01  0.2297777E+00  0.2475830E+01  0.1807077E+00 -0.1419244E+00
 -0.1349950E+02 -0.7215620E+01 -0.2568960E-01  0.2333663E+00  0.2474185E+01  0.1832926E+00 -0.1444425E+00
 -0.1272720E+02 -0.8504060E+01 -0.2568960E-01  0.2355968E+00  0.2471672E+01  0.1846775E+00 -0.1462877E+00
 -0.1183240E+02 -0.9710600E+01 -0.2568960E-01  0.2376523E+00  0.2467294E+01  0.1856410E+00 -0.1483781E+00
 -0.1082360E+02 -0.1082360E+02 -0.2568960E-01  0.2398096E+00  0.2461280E+01  0.1864222E+00 -0.1508490E+00
 -0.9710600E+01 -0.1183240E+02 -0.2568960E-01  0.2410387E+00  0.2455296E+01  0.1864670E+00 -0.1527406E+00
 -0.8504050E+01 -0.1272720E+02 -0.2568960E-01  0.2411071E+00  0.2450297E+01  0.1857539E+00 -0.1537144E+00
 -0.7215620E+01 -0.1349950E+02 -0.2568960E-01  0.2434887E+00  0.2442349E+01  0.1863490E+00 -0.1567188E+00
 -0.5857690E+01 -0.1414170E+02 -0.2568960E-01  0.2425381E+00  0.2439201E+01  0.1851291E+00 -0.1566906E+00
 -0.4443360E+01 -0.1464780E+02 -0.2568960E-01  0.2411426E+00  0.2440091E+01  0.1842026E+00 -0.1556251E+00
 -0.2986230E+01 -0.1501280E+02 -0.2568960E-01  0.2403483E+00  0.2448507E+01  0.1848947E+00 -0.1535618E+00
 -0.1500340E+01 -0.1523320E+02 -0.2568960E-01  0.2062269E+00  0.2502862E+01  0.1655700E+00 -0.1229477E+00
  0.1825330E-06 -0.1530690E+02 -0.2568960E-01  0.1513827E+00  0.2588112E+01  0.1287812E+00 -0.7957458E-01
  0.1500340E+01 -0.1523320E+02 -0.2568960E-01  0.7360008E-01  0.2976735E+01  0.7260219E-01 -0.1207866E-01
  0.2986230E+01 -0.1501280E+02 -0.2568960E-01  0.1291057E+00 -0.1319252E+01 -0.3213434E-01  0.1250427E+00
  0.4443360E+01 -0.1464780E+02 -0.2568960E-01  0.1853235E+00 -0.1185712E+01 -0.6961449E-01  0.1717516E+00
  0.5857700E+01 -0.1414170E+02 -0.2568960E-01  0.2168171E+00 -0.1131616E+01 -0.9219019E-01  0.1962413E+00
  0.7215620E+01 -0.1349950E+02 -0.2568960E-01  0.2405021E+00 -0.1093757E+01 -0.1104268E+00  0.2136520E+00
  0.8504060E+01 -0.1272720E+02 -0.2568960E-01  0.2560673E+00 -0.1065769E+01 -0.1238934E+00  0.2241002E+00
  0.9710600E+01 -0.1183240E+02 -0.2568960E-01  0.2721451E+00 -0.1041547E+01 -0.1374022E+00  0.2349118E+00
  0.1082360E+02 -0.1082360E+02 -0.2568960E-01  0.2839083E+00 -0.1021667E+01 -0.1481843E+00  0.2421679E+00
  0.1183240E+02 -0.9710590E+01 -0.2568960E-01  0.2936259E+00 -0.1005154E+01 -0.1573711E+00  0.2478921E+00
  0.1272720E+02 -0.8504060E+01 -0.2568960E-01  0.3037242E+00 -0.9915302E+00 -0.1662616E+00  0.2541760E+00
  0.1349950E+02 -0.7215620E+01 -0.2568960E-01  0.3125542E+00 -0.9814171E+00 -0.1737317E+00  0.2598219E+00
  0.1414170E+02 -0.5857700E+01 -0.2568960E-01  0.3186756E+00 -0.9743429E+00 -0.1790038E+00  0.2636508E+00
  0.1464780E+02 -0.4443350E+01 -0.2568960E-01  0.3216058E+00 -0.9691856E+00 -0.1820196E+00  0.2651398E+00
  0.1501280E+02 -0.2986230E+01 -0.2568960E-01  0.3237469E+00 -0.9668566E+00 -0.1838525E+00  0.2664776E+00
  0.1523320E+02 -0.1500330E+01 -0.2568960E-01  0.3260792E+00 -0.9681369E+00 -0.1848332E+00  0.2686342E+00
  0.1530690E+02  0.0000000E+00 -0.1027320E+00  0.3274465E+00 -0.9734839E+00 -0.1841632E+00  0.2707492E+00
  0.1523320E+02  0.1500340E+01 -0.1027320E+00  0.3294603E+00 -0.9828516E+00 -0.1827358E+00  0.2741381E+00
  0.1501280E+02  0.2986230E+01 -0.1027320E+00  0.3312587E+00 -0.9964049E+00 -0.1799808E+00  0.2780993E+00
  0.1464780E+02  0.4443360E+01 -0.1027320E+00  0.3328241E+00 -0.1014069E+01 -0.1758678E+00  0.2825640E+00
  0.1414170E+02  0.5857700E+01 -0.1027320E+00  0.3336866E+00 -0.1035423E+01 -0.1702343E+00  0.2869965E+00
  0.1349950E+02  0.7215620E+01 -0.1027320E+00  0.3324546E+00 -0.1059191E+01 -0.1627622E+00  0.2898871E+00
  0.1272720E+02  0.8504060E+01 -0.1027320E+00  0.3300549E+00 -0.1086503E+01 -0.1536680E+00  0.2921000E+00
  0.1183240E+02  0.9710600E+01 -0.1027320E+00  0.3273186E+00 -0.1118645E+01 -0.1430061E+00  0.2944261E+00
  0.1082360E+02  0.1082360E+02 -0.1027320E+00  0.3246341E+00 -0.1155293E+01 -0.1310387E+00  0.2970121E+00
  0.9710590E+01  0.1183240E+02 -0.1027320E+00  0.3211317E+00 -0.1196494E+01 -0.1174133E+00  0.2988974E+00
  0.8504060E+01  0.1272720E+02 -0.1027320E+00  0.3164173E+00 -0.1244242E+01 -0.1015008E+00  0.2996956E+00
  0.7215620E+01  0.1349950E+02 -0.1027320E+00  0.3135620E+00 -0.1300853E+01 -0.8361966E-01  0.3022067E+00
  0.5857700E+01  0.1414170E+02 -0.1027320E+00  0.3080512E+00 -0.1364843E+01 -0.6299654E-01  0.3015410E+00
  0.4443360E+01  0.1464780E+02 -0.1027320E+00  0.3019351E+00 -0.1442946E+01 -0.3849742E-01  0.2994708E+00
  0.2986230E+01  0.1501280E+02 -0.1027320E+00  0.2955790E+00 -0.1555663E+01 -0.4472994E-02  0.2955452E+00
  0.1500340E+01  0.1523320E+02 -0.1027320E+00  0.2657711E+00 -0.1757180E+01  0.4924906E-01  0.2611682E+00
 -0.6690860E-06  0.1530690E+02 -0.1027320E+00  0.2278536E+00 -0.1886261E+01  0.7069352E-01  0.2166096E+00
 -0.1500340E+01  0.1523320E+02 -0.1027320E+00  0.1670897E+00 -0.2035741E+01  0.7491856E-01  0.1493525E+00
 -0.2986230E+01  0.1501280E+02 -0.1027320E+00  0.5471516E-01 -0.2856389E+01  0.5250491E-01  0.1539428E-01
 -0.4443360E+01  0.1464780E+02 -0.1027320E+00  0.6164102E-01  0.2634230E+01  0.5387603E-01 -0.2994975E-01
 -0.5857700E+01  0.1414170E+02 -0.1027320E+00  0.8177145E-01  0.2422915E+01  0.6154750E-01 -0.5383749E-01
 -0.7215620E+01  0.1349950E+02 -0.1027320E+00  0.9986877E-01  0.2353247E+01  0.7040946E-01 -0.7082570E-01
 -0.8504060E+01  0.1272720E+02 -0.1027320E+00  0.1139341E+00  0.2349053E+01  0.7998613E-01 -0.8113687E-01
 -0.9710590E+01  0.1183240E+02 -0.1027320E+00  0.1281772E+00  0.2343951E+01  0.8951856E-01 -0.9173784E-01
 -0.1082360E+02  0.1082360E+02 -0.1027320E+00  0.1400853E+00  0.2357770E+01  0.9921122E-01 -0.9889902E-01
 -0.1183240E+02  0.9710590E+01 -0.1027320E+00  0.1507610E+00  0.2375347E+01  0.1086262E+00 -0.1045430E+00
 -0.1272720E+02  0.8504060E+01 -0.1027320E+00  0.1613067E+00  0.2385698E+01  0.1173761E+00 -0.1106468E+00
 -0.1349950E+02  0.7215620E+01 -0.1027320E+00  0.1713189E+00  0.2396816E+01  0.1259604E+00 -0.1161212E+00
 -0.1414170E+02  0.5857690E+01 -0.1027320E+00  0.1800330E+00  0.2413440E+01  0.1343776E+00 -0.1198105E+00
 -0.1464780E+02  0.4443360E+01 -0.1027320E+00  0.1867875E+00  0.2435721E+01  0.1421539E+00 -0.1211686E+00
 -0.1501280E+02  0.2986230E+01 -0.1027320E+00  0.1929046E+00  0.2455081E+01  0.1492044E+00 -0.1222711E+00
 -0.1523320E+02  0.1500340E+01 -0.1027320E+00  0.1989225E+00  0.2468199E+01  0.1554996E+00 -0.1240565E+00
 -0.1530690E+02 -0.1338170E-05 -0.1027320E+00  0.2049839E+00  0.2475068E+01  0.1611122E+00 -0.1267329E+00
 -0.1523320E+02 -0.1500340E+01 -0.1027320E+00  0.2109496E+00  0.2479455E+01  0.1663717E+00 -0.1296927E+00
 -0.1501280E+02 -0.2986230E+01 -0.1027320E+00  0.2170533E+00  0.2480639E+01  0.1713434E+00 -0.1332426E+00
 -0.1464780E+02 -0.4443360E+01 -0.1027320E+00  0.2231998E+00  0.2478983E+01  0.1759684E+00 -0.1373072E+00
 -0.1414170E+02 -0.5857700E+01 -0.1027320E+00  0.2288373E+00  0.2475818E+01  0.1799665E+00 -0.1413456E+00
 -0.1349950E+02 -0.7215620E+01 -0.1027320E+00  0.2324255E+00  0.2474143E+01  0.1825476E+00 -0.1438680E+00
 -0.1272720E+02 -0.8504060E+01 -0.1027320E+00  0.2346755E+00  0.2471579E+01  0.1839418E+00 -0.1457327E+00
 -0.1183240E+02 -0.9710600E+01 -0.1027320E+00  0.2367410E+00  0.2467193E+01  0.1849142E+00 -0.1478278E+00
 -0.1082360E+02 -0.1082360E+02 -0.1027320E+00  0.2388827E+00  0.2461193E+01  0.1856886E+00 -0.1502820E+00
 -0.9710600E+01 -0.1183240E+02 -0.1027320E+00  0.2401103E+00  0.2455211E+01  0.1857359E+00 -0.1521681E+00
 -0.8504050E+01 -0.1272720E+02 -0.1027320E+00  0.2402260E+00  0.2450156E+01  0.1850535E+00 -0.1531788E+00
 -0.7215620E+01 -0.1349950E+02 -0.1027320E+00  0.2425316E+00  0.2442292E+01  0.1856076E+00 -0.1561134E+00
 -0.5857690E+01 -0.1414170E+02 -0.1027320E+00  0.2416475E+00  0.2439089E+01  0.1844318E+00 -0.1561359E+00
 -0.4443360E+01 -0.1464780E+02 -0.1027320E+00  0.2402851E+00  0.2439956E+01  0.1835267E+00 -0.1550965E+00
 -0.2986230E+01 -0.1501280E+02 -0.1027320E+00  0.2394698E+00  0.2448397E+01  0.1842021E+00 -0.1530207E+00
 -0.1500340E+01 -0.1523320E+02 -0.1027320E+00  0.2054505E+00  0.2502709E+01  0.1649279E+00 -0.1225101E+00
  0.1825330E-06 -0.1530690E+02 -0.1027320E+00  0.1507885E+00  0.2588057E+01  0.1282714E+00 -0.7926927E-01
  0.1500340E+01 -0.1523320E+02 -0.1027320E+00  0.7321694E-01  0.2977998E+01  0.7223938E-01 -0.1192450E-01
  0.2986230E+01 -0.1501280E+02 -0.1027320E+00  0.1285545E+00 -0.1319386E+01 -0.3198058E-01  0.1245131E+00
  0.4443360E+01 -0.1464780E+02 -0.1027320E+00  0.1845690E+00 -0.1185745E+01 -0.6932529E-01  0.1710548E+00
  0.5857700E+01 -0.1414170E+02 -0.1027320E+00  0.2159792E+00 -0.1131610E+01 -0.9183512E-01  0.1954823E+00
  0.7215620E+01 -0.1349950E+02 -0.1027320E+00  0.2395138E+00 -0.1093798E+01 -0.1099644E+00  0.2127785E+00
  0.8504060E+01 -0.1272720E+02 -0.1027320E+00  0.2551110E+00 -0.1065773E+01 -0.1234298E+00  0.2232638E+00
  0.9710600E+01 -0.1183240E+02 -0.1027320E+00  0.2710544E+00 -0.1041571E+01 -0.1368458E+00  0.2339738E+00
  0.1082360E+02 -0.1082360E+02 -0.1027320E+00  0.2827863E+00 -0.1021692E+01 -0.1475929E+00  0.2412145E+00
  0.1183240E+02 -0.9710590E+01 -0.1027320E+00  0.2924896E+00 -0.1005175E+01 -0.1567569E+00  0.2469361E+00
  0.1272720E+02 -0.8504060E+01 -0.1027320E+00  0.3025138E+00 -0.9915633E+00 -0.1655907E+00  0.2531686E+00
  0.1349950E+02 -0.7215620E+01 -0.1027320E+00  0.3112659E+00 -0.9814431E+00 -0.1730089E+00  0.2587554E+00
  0.1414170E+02 -0.5857700E+01 -0.1027320E+00  0.3173513E+00 -0.9743567E+00 -0.1782564E+00  0.2625577E+00
  0.1464780E+02 -0.4443350E+01 -0.1027320E+00  0.3203076E+00 -0.9692097E+00 -0.1812785E+00  0.2640740E+00
  0.1501280E+02 -0.2986230E+01 -0.1027320E+00  0.3224779E+00 -0.9668988E+00 -0.1831207E+00  0.2654408E+00
  0.1523320E+02 -0.1500330E+01 -0.1027320E+00  0.3248190E+00 -0.9681938E+00 -0.1841037E+00  0.2676064E+00
  0.1530690E+02  0.0000000E+00 -0.2310450E+00  0.3253312E+00 -0.9735860E+00 -0.1829461E+00  0.2690188E+00
  0.1523320E+02  0.1500340E+01 -0.2310450E+00  0.3273209E+00 -0.9829439E+00 -0.1815241E+00  0.2723747E+00
  0.1501280E+02  0.2986230E+01 -0.2310450E+00  0.3290789E+00 -0.9964680E+00 -0.1787790E+00  0.2762806E+00
  0.1464780E+02  0.4443360E+01 -0.2310450E+00  0.3305903E+00 -0.1014089E+01 -0.1746818E+00  0.2806710E+00
  0.1414170E+02  0.5857700E+01 -0.2310450E+00  0.3314076E+00 -0.1035405E+01 -0.1690767E+00  0.2850334E+00
  0.1349950E+02  0.7215620E+01 -0.2310450E+00  0.3302053E+00 -0.1059206E+01 -0.1616568E+00  0.2879281E+00
  0.1272720E+02  0.8504060E+01 -0.2310450E+00  0.3278664E+00 -0.1086560E+01 -0.1526326E+00  0.2901718E+00
  0.1183240E+02  0.9710600E+01 -0.2310450E+00  0.3251714E+00 -0.1118717E+01 -0.1420467E+00  0.2925049E+00
  0.1082360E+02  0.1082360E+02 -0.2310450E+00  0.3224922E+00 -0.1155367E+01 -0.1301522E+00  0.2950620E+00
  0.9710590E+01  0.1183240E+02 -0.2310450E+00  0.3190144E+00 -0.1196596E+01 -0.1166088E+00  0.2969387E+00
  0.8504060E+01  0.1272720E+02 -0.2310450E+00  0.3144010E+00 -0.1244377E+01 -0.1008137E+00  0.2977996E+00
  0.7215620E+01  0.1349950E+02 -0.2310450E+00  0.3114719E+00 -0.1300917E+01 -0.8304314E-01  0.3001975E+00
  0.5857700E+01  0.1414170E+02 -0.2310450E+00  0.3060754E+00 -0.1364981E+01 -0.6255122E-01  0.2996156E+00
  0.4443360E+01  0.1464780E+02 -0.2310450E+00  0.3000344E+00 -0.1443201E+01 -0.3817930E-01  0.2975953E+00
  0.2986230E+01  0.1501280E+02 -0.2310450E+00  0.2937066E+00 -0.1555782E+01 -0.4409649E-02  0.2936735E+00
  0.1500340E+01  0.1523320E+02 -0.2310450E+00  0.2640888E+00 -0.1757267E+01  0.4895980E-01  0.2595107E+00
 -0.6690860E-06  0.1530690E+02 -0.2310450E+00  0.2262775E+00 -0.1886236E+01  0.7019905E-01  0.2151130E+00
 -0.1500340E+01  0.1523320E+02 -0.2310450E+00  0.1659884E+00 -0.2036036E+01  0.7446846E-01  0.1483462E+00
 -0.2986230E+01  0.1501280E+02 -0.2310450E+00  0.5436618E-01 -0.2857587E+01  0.5218830E-01  0.1523358E-01
 -0.4443360E+01  0.1464780E+02 -0.2310450E+00  0.6128694E-01  0.2634510E+01  0.5357489E-01 -0.2976273E-01
 -0.5857700E+01  0.1414170E+02 -0.2310450E+00  0.8129022E-01  0.2422371E+01  0.6115616E-01 -0.5355393E-01
 -0.7215620E+01  0.1349950E+02 -0.2310450E+00  0.9921804E-01  0.2353447E+01  0.6996474E-01 -0.7035024E-01
 -0.8504060E+01  0.1272720E+02 -0.2310450E+00  0.1132726E+00  0.2348337E+01  0.7946401E-01 -0.8072263E-01
 -0.9710590E+01  0.1183240E+02 -0.2310450E+00  0.1273564E+00  0.2343886E+01  0.8893927E-01 -0.9115616E-01
 -0.1082360E+02  0.1082360E+02 -0.2310450E+00  0.1391952E+00  0.2357554E+01  0.9855955E-01 -0.9829196E-01
 -0.1183240E+02  0.9710590E+01 -0.2310450E+00  0.1498163E+00  0.2374946E+01  0.1079039E+00 -0.1039312E+00
 -0.1272720E+02  0.8504060E+01 -0.2310450E+00  0.1602674E+00  0.2385550E+01  0.1166037E+00 -0.1099510E+00
 -0.1349950E+02  0.7215620E+01 -0.2310450E+00  0.1701712E+00  0.2396942E+01  0.1251311E+00 -0.1153276E+00
 -0.1414170E+02  0.5857690E+01 -0.2310450E+00  0.1788080E+00  0.2413615E+01  0.1334840E+00 -0.1189719E+00
 -0.1464780E+02  0.4443360E+01 -0.2310450E+00  0.1855541E+00  0.2435658E+01  0.1412077E+00 -0.1203774E+00
 -0.1501280E+02  0.2986230E+01 -0.2310450E+00  0.1916688E+00  0.2454806E+01  0.1482150E+00 -0.1215287E+00
 -0.1523320E+02  0.1500340E+01 -0.2310450E+00  0.1976721E+00  0.2467840E+01  0.1544780E+00 -0.1233321E+00
 -0.1530690E+02 -0.1338170E-05 -0.2310450E+00  0.2036985E+00  0.2474739E+01  0.1600605E+00 -0.1259910E+00
 -0.1523320E+02 -0.1500340E+01 -0.2310450E+00  0.2096173E+00  0.2479169E+01  0.1652841E+00 -0.1289209E+00
 -0.1501280E+02 -0.2986230E+01 -0.2310450E+00  0.2156543E+00  0.2480438E+01  0.1702126E+00 -0.1324178E+00
 -0.1464780E+02 -0.4443360E+01 -0.2310450E+00  0.2217168E+00  0.2478887E+01  0.1747861E+00 -0.1364117E+00
 -0.1414170E+02 -0.5857700E+01 -0.2310450E+00  0.2272740E+00  0.2475798E+01  0.1787342E+00 -0.1403835E+00
 -0.1349950E+02 -0.7215620E+01 -0.2310450E+00  0.2308615E+00  0.2474073E+01  0.1813093E+00 -0.1429125E+00
 -0.1272720E+02 -0.8504060E+01 -0.2310450E+00  0.2331482E+00  0.2471442E+01  0.1827248E+00 -0.1448093E+00
 -0.1183240E+02 -0.9710600E+01 -0.2310450E+00  0.2352247E+00  0.2467017E+01  0.1837039E+00 -0.1469133E+00
 -0.1082360E+02 -0.1082360E+02 -0.2310450E+00  0.2373409E+00  0.2461044E+01  0.1844679E+00 -0.1493395E+00
 -0.9710600E+01 -0.1183240E+02 -0.2310450E+00  0.2385676E+00  0.2455062E+01  0.1845201E+00 -0.1512178E+00
 -0.8504050E+01 -0.1272720E+02 -0.2310450E+00  0.2387595E+00  0.2449913E+01  0.1838868E+00 -0.1522884E+00
 -0.7215620E+01 -0.1349950E+02 -0.2310450E+00  0.2409414E+00  0.2442186E+01  0.1843742E+00 -0.1551094E+00
 -0.5857690E+01 -0.1414170E+02 -0.2310450E+00  0.2401623E+00  0.2438900E+01  0.1832690E+00 -0.1552109E+00
 -0.4443360E+01 -0.1464780E+02 -0.2310450E+00  0.2388603E+00  0.2439732E+01  0.1824037E+00 -0.1542178E+00
 -0.2986230E+01 -0.1501280E+02 -0.2310450E+00  0.2380174E+00  0.2448190E+01  0.1830534E+00 -0.1521306E+00
 -0.1500340E+01 -0.1523320E+02 -0.2310450E+00  0.2042046E+00  0.2502448E+01  0.1638959E+00 -0.1218100E+00
  0.1825330E-06 -0.1530690E+02 -0.2310450E+00  0.1497429E+00  0.2588089E+01  0.1273845E+00 -0.7871548E-01
  0.1500340E+01 -0.1523320E+02 -0.2310450E+00  0.7275207E-01  0.2977747E+01  0.7177773E-01 -0.1186684E-01
  0.2986230E+01 -0.1501280E+02 -0.2310450E+00  0.1277267E+00 -0.1319303E+01 -0.3178482E-01  0.1237087E+00
  0.4443360E+01 -0.1464780E+02 -0.2310450E+00  0.1833106E+00 -0.1185810E+01 -0.6884160E-01  0.1698930E+00
  0.5857700E+01 -0.1414170E+02 -0.2310450E+00  0.2145908E+00 -0.1131580E+01 -0.9125061E-01  0.1942229E+00
  0.7215620E+01 -0.1349950E+02 -0.2310450E+00  0.2378715E+00 -0.1093861E+01 -0.1091969E+00  0.2113265E+00
  0.8504060E+01 -0.1272720E+02 -0.2310450E+00  0.2535225E+00 -0.1065761E+01 -0.1226638E+00  0.2218721E+00
  0.9710600E+01 -0.1183240E+02 -0.2310450E+00  0.2692423E+00 -0.1041605E+01 -0.1359230E+00  0.2324142E+00
  0.1082360E+02 -0.1082360E+02 -0.2310450E+00  0.2809215E+00 -0.1021725E+01 -0.1466117E+00  0.2396287E+00
  0.1183240E+02 -0.9710590E+01 -0.2310450E+00  0.2905981E+00 -0.1005216E+01 -0.1557332E+00  0.2453456E+00
  0.1272720E+02 -0.8504060E+01 -0.2310450E+00  0.3005018E+00 -0.9916129E+00 -0.1644769E+00  0.2514929E+00
  0.1349950E+02 -0.7215620E+01 -0.2310450E+00  0.3091230E+00 -0.9814856E+00 -0.1718069E+00  0.2569814E+00
  0.1414170E+02 -0.5857700E+01 -0.2310450E+00  0.3151492E+00 -0.9743754E+00 -0.1770145E+00  0.2607390E+00
  0.1464780E+02 -0.4443350E+01 -0.2310450E+00  0.3181489E+00 -0.9692499E+00 -0.1800462E+00  0.2623015E+00
  0.1501280E+02 -0.2986230E+01 -0.2310450E+00  0.3203673E+00 -0.9669680E+00 -0.1819039E+00  0.2637161E+00
  0.1523320E+02 -0.1500330E+01 -0.2310450E+00  0.3227251E+00 -0.9682811E+00 -0.1828936E+00  0.2658973E+00
  0.1530690E+02  0.0000000E+00 -0.4105000E+00  0.3224085E+00 -0.9737372E+00 -0.1812622E+00  0.2666294E+00
  0.1523320E+02  0.1500340E+01 -0.4105000E+00  0.3243651E+00 -0.9830791E+00 -0.1798484E+00  0.2699394E+00
  0.1501280E+02  0.2986230E+01 -0.4105000E+00  0.3260661E+00 -0.9965631E+00 -0.1771162E+00  0.2737680E+00
  0.1464780E+02  0.4443360E+01 -0.4105000E+00  0.3275023E+00 -0.1014120E+01 -0.1730415E+00  0.2780547E+00
  0.1414170E+02  0.5857700E+01 -0.4105000E+00  0.3282543E+00 -0.1035388E+01 -0.1674729E+00  0.2823185E+00
  0.1349950E+02  0.7215620E+01 -0.4105000E+00  0.3270942E+00 -0.1059220E+01 -0.1601298E+00  0.2852175E+00
  0.1272720E+02  0.8504060E+01 -0.4105000E+00  0.3248352E+00 -0.1086639E+01 -0.1511987E+00  0.2875011E+00
  0.1183240E+02  0.9710600E+01 -0.4105000E+00  0.3221971E+00 -0.1118811E+01 -0.1407204E+00  0.2898426E+00
  0.1082360E+02  0.1082360E+02 -0.4105000E+00  0.3195226E+00 -0.1155462E+01 -0.1289260E+00  0.2923572E+00
  0.9710590E+01  0.1183240E+02 -0.4105000E+00  0.3160766E+00 -0.1196731E+01 -0.1154953E+00  0.2942197E+00
  0.8504060E+01  0.1272720E+02 -0.4105000E+00  0.3116001E+00 -0.1244549E+01 -0.9986485E-01  0.2951638E+00
  0.7215620E+01  0.1349950E+02 -0.4105000E+00  0.3085598E+00 -0.1300988E+01 -0.8224549E-01  0.2973967E+00
  0.5857700E+01  0.1414170E+02 -0.4105000E+00  0.3033231E+00 -0.1365154E+01 -0.6193728E-01  0.2969321E+00
  0.4443360E+01  0.1464780E+02 -0.4105000E+00  0.2973792E+00 -0.1443515E+01 -0.3774880E-01  0.2949736E+00
  0.2986230E+01  0.1501280E+02 -0.4105000E+00  0.2910805E+00 -0.1555840E+01 -0.4353447E-02  0.2910480E+00
  0.1500340E+01  0.1523320E+02 -0.4105000E+00  0.2617359E+00 -0.1757526E+01  0.4859038E-01  0.2571861E+00
 -0.6690860E-06  0.1530690E+02 -0.4105000E+00  0.2241903E+00 -0.1886357E+01  0.6957726E-01  0.2131203E+00
 -0.1500340E+01  0.1523320E+02 -0.4105000E+00  0.1645584E+00 -0.2036314E+01  0.7386784E-01  0.1470477E+00
 -0.2986230E+01  0.1501280E+02 -0.4105000E+00  0.5383914E-01 -0.2860003E+01  0.5171868E-01  0.1496097E-01
 -0.4443360E+01  0.1464780E+02 -0.4105000E+00  0.6078763E-01  0.2634840E+01  0.5314817E-01 -0.2950269E-01
 -0.5857700E+01  0.1414170E+02 -0.4105000E+00  0.8061381E-01  0.2421738E+01  0.6061365E-01 -0.5314670E-01
 -0.7215620E+01  0.1349950E+02 -0.4105000E+00  0.9830072E-01  0.2353891E+01  0.6934878E-01 -0.6966905E-01
 -0.8504060E+01  0.1272720E+02 -0.4105000E+00  0.1123469E+00  0.2347380E+01  0.7873796E-01 -0.8013844E-01
 -0.9710590E+01  0.1183240E+02 -0.4105000E+00  0.1262125E+00  0.2343832E+01  0.8813561E-01 -0.9034216E-01
 -0.1082360E+02  0.1082360E+02 -0.4105000E+00  0.1379559E+00  0.2357283E+01  0.9765571E-01 -0.9744326E-01