 VARIABLES="X" "Y" "Z" "abs(eta) (m)" "angle(phi) (rad)" "PRE1" "PRE2"
ZONE N=   3200 ,E =    3136 ,F=FEPOINT,ET=QUADRILATERAL
  0.1672760E+02  0.0000000E+00  0.0000000E+00  0.2931232E+00 -0.6501309E+00 -0.2333274E+00  0.1774247E+00
  0.1664710E+02  0.1639590E+01  0.0000000E+00  0.2946501E+00 -0.6604266E+00 -0.2326942E+00  0.1807542E+00
  0.1640620E+02  0.3263390E+01  0.0000000E+00  0.2948288E+00 -0.6749578E+00 -0.2301827E+00  0.1842280E+00
  0.1600730E+02  0.4855770E+01  0.0000000E+00  0.2937414E+00 -0.6941528E+00 -0.2257685E+00  0.1879165E+00
  0.1545430E+02  0.6401380E+01  0.0000000E+00  0.2914336E+00 -0.7191502E+00 -0.2192647E+00  0.1919806E+00
  0.1475240E+02  0.7885340E+01  0.0000000E+00  0.2885712E+00 -0.7498837E+00 -0.2111672E+00  0.1966768E+00
  0.1390850E+02  0.9293360E+01  0.0000000E+00  0.2851734E+00 -0.7866794E+00 -0.2013895E+00  0.2019062E+00
  0.1293060E+02  0.1061190E+02  0.0000000E+00  0.2812171E+00 -0.8304689E+00 -0.1896893E+00  0.2076079E+00
  0.1182820E+02  0.1182820E+02  0.0000000E+00  0.2763088E+00 -0.8842526E+00 -0.1751432E+00  0.2137087E+00
  0.1061190E+02  0.1293060E+02  0.0000000E+00  0.2701294E+00 -0.9444917E+00 -0.1583377E+00  0.2188586E+00
  0.9293360E+01  0.1390850E+02  0.0000000E+00  0.2635998E+00 -0.1013119E+01 -0.1395014E+00  0.2236609E+00
  0.7885330E+01  0.1475240E+02  0.0000000E+00  0.2554219E+00 -0.1093126E+01 -0.1174204E+00  0.2268321E+00
  0.6401380E+01  0.1545430E+02  0.0000000E+00  0.2470855E+00 -0.1191265E+01 -0.9154146E-01  0.2295025E+00
  0.4855770E+01  0.1600730E+02  0.0000000E+00  0.2382792E+00 -0.1316885E+01 -0.5985383E-01  0.2306393E+00
  0.3263390E+01  0.1640620E+02  0.0000000E+00  0.2281085E+00 -0.1482507E+01 -0.2011346E-01  0.2272200E+00
  0.1639590E+01  0.1664710E+02  0.0000000E+00  0.2174559E+00 -0.1680322E+01  0.2376950E-01  0.2161529E+00
 -0.7311870E-06  0.1672760E+02  0.0000000E+00  0.1981053E+00 -0.1833186E+01  0.5138640E-01  0.1913247E+00
 -0.1639590E+01  0.1664710E+02  0.0000000E+00  0.1617549E+00 -0.1948832E+01  0.5970307E-01  0.1503336E+00
 -0.3263390E+01  0.1640620E+02  0.0000000E+00  0.1110996E+00 -0.2073014E+01  0.5348010E-01  0.9738069E-01
 -0.4855770E+01  0.1600730E+02  0.0000000E+00  0.7742435E-01 -0.2288292E+01  0.5090649E-01  0.5833574E-01
 -0.6401380E+01  0.1545430E+02  0.0000000E+00  0.6402832E-01 -0.2572128E+01  0.5392399E-01  0.3452289E-01
 -0.7885340E+01  0.1475240E+02  0.0000000E+00  0.6331170E-01 -0.2834845E+01  0.6035635E-01  0.1911760E-01
 -0.9293360E+01  0.1390850E+02  0.0000000E+00  0.6853734E-01 -0.3029904E+01  0.6811031E-01  0.7638920E-02
 -0.1061190E+02  0.1293060E+02  0.0000000E+00  0.7676157E-01 -0.3135977E+01  0.7676036E-01  0.4310889E-03
 -0.1182820E+02  0.1182820E+02  0.0000000E+00  0.8550283E-01  0.3075338E+01  0.8531523E-01 -0.5660854E-02
 -0.1293060E+02  0.1061190E+02  0.0000000E+00  0.9445892E-01  0.3038911E+01  0.9396139E-01 -0.9682200E-02
 -0.1390850E+02  0.9293360E+01  0.0000000E+00  0.1038901E+00  0.3025171E+01  0.1031869E+00 -0.1206774E-01
 -0.1475240E+02  0.7885330E+01  0.0000000E+00  0.1131103E+00  0.3015416E+01  0.1122111E+00 -0.1423404E-01
 -0.1545430E+02  0.6401370E+01  0.0000000E+00  0.1219299E+00  0.3006162E+01  0.1208134E+00 -0.1646261E-01
 -0.1600730E+02  0.4855770E+01  0.0000000E+00  0.1303567E+00  0.2995034E+01  0.1289592E+00 -0.1903664E-01
 -0.1640620E+02  0.3263390E+01  0.0000000E+00  0.1387459E+00  0.2988263E+01  0.1371181E+00 -0.2119065E-01
 -0.1664710E+02  0.1639590E+01  0.0000000E+00  0.1467778E+00  0.2983090E+01  0.1449379E+00 -0.2316734E-01
 -0.1672760E+02 -0.1462370E-05  0.0000000E+00  0.1542446E+00  0.2977920E+01  0.1521832E+00 -0.2513302E-01
 -0.1664710E+02 -0.1639590E+01  0.0000000E+00  0.1610363E+00  0.2971366E+01  0.1587088E+00 -0.2728047E-01
 -0.1640620E+02 -0.3263400E+01  0.0000000E+00  0.1672788E+00  0.2964532E+01  0.1646635E+00 -0.2946393E-01
 -0.1600730E+02 -0.4855770E+01  0.0000000E+00  0.1729860E+00  0.2956569E+01  0.1700334E+00 -0.3182421E-01
 -0.1545430E+02 -0.6401380E+01  0.0000000E+00  0.1782718E+00  0.2946368E+01  0.1748854E+00 -0.3458230E-01
 -0.1475240E+02 -0.7885340E+01  0.0000000E+00  0.1831669E+00  0.2933368E+01  0.1792104E+00 -0.3786485E-01
 -0.1390850E+02 -0.9293360E+01  0.0000000E+00  0.1875662E+00  0.2918034E+01  0.1828985E+00 -0.4158356E-01
 -0.1293060E+02 -0.1061190E+02  0.0000000E+00  0.1918485E+00  0.2899791E+01  0.1862673E+00 -0.4593848E-01
 -0.1182820E+02 -0.1182820E+02  0.0000000E+00  0.1961487E+00  0.2877883E+01  0.1893677E+00 -0.5112888E-01
 -0.1061190E+02 -0.1293060E+02  0.0000000E+00  0.1989212E+00  0.2858012E+01  0.1909762E+00 -0.5565713E-01
 -0.9293350E+01 -0.1390850E+02  0.0000000E+00  0.2011245E+00  0.2837864E+01  0.1919186E+00 -0.6015242E-01
 -0.7885340E+01 -0.1475240E+02  0.0000000E+00  0.2014373E+00  0.2821081E+01  0.1911790E+00 -0.6346324E-01
 -0.6401370E+01 -0.1545430E+02  0.0000000E+00  0.2017020E+00  0.2804046E+01  0.1903200E+00 -0.6679834E-01
 -0.4855760E+01 -0.1600730E+02  0.0000000E+00  0.2008968E+00  0.2789205E+01  0.1885520E+00 -0.6933750E-01
 -0.3263390E+01 -0.1640620E+02  0.0000000E+00  0.1952714E+00  0.2784607E+01  0.1829604E+00 -0.6823793E-01
 -0.1639590E+01 -0.1664710E+02  0.0000000E+00  0.1785487E+00  0.2798187E+01  0.1681238E+00 -0.6011664E-01
  0.1994750E-06 -0.1672760E+02  0.0000000E+00  0.1382981E+00  0.2868900E+01  0.1331878E+00 -0.3724726E-01
  0.1639600E+01 -0.1664710E+02  0.0000000E+00  0.7675996E-01 -0.3101241E+01  0.7669748E-01  0.3096573E-02
  0.3263390E+01 -0.1640620E+02  0.0000000E+00  0.5684626E-01 -0.1669840E+01  0.5621086E-02  0.5656766E-01
  0.4855770E+01 -0.1600730E+02  0.0000000E+00  0.1078835E+00 -0.1097621E+01 -0.4916415E-01  0.9602982E-01
  0.6401380E+01 -0.1545430E+02  0.0000000E+00  0.1479278E+00 -0.9440764E+00 -0.8675835E-01  0.1198149E+00
  0.7885340E+01 -0.1475240E+02  0.0000000E+00  0.1771286E+00 -0.8653537E+00 -0.1148450E+00  0.1348523E+00
  0.9293360E+01 -0.1390850E+02  0.0000000E+00  0.2011097E+00 -0.8107383E+00 -0.1385572E+00  0.1457635E+00
  0.1061190E+02 -0.1293060E+02  0.0000000E+00  0.2189329E+00 -0.7693492E+00 -0.1572734E+00  0.1523046E+00
  0.1182820E+02 -0.1182820E+02  0.0000000E+00  0.2350657E+00 -0.7355773E+00 -0.1742879E+00  0.1577327E+00
  0.1293060E+02 -0.1061190E+02  0.0000000E+00  0.2477848E+00 -0.7076987E+00 -0.1882818E+00  0.1610817E+00
  0.1390850E+02 -0.9293360E+01  0.0000000E+00  0.2573817E+00 -0.6851373E+00 -0.1992989E+00  0.1628658E+00
  0.1475240E+02 -0.7885330E+01  0.0000000E+00  0.2659324E+00 -0.6675870E+00 -0.2088414E+00  0.1646368E+00
  0.1545430E+02 -0.6401380E+01  0.0000000E+00  0.2737982E+00 -0.6550229E+00 -0.2171313E+00  0.1667917E+00
  0.1600730E+02 -0.4855760E+01  0.0000000E+00  0.2811962E+00 -0.6474801E+00 -0.2242839E+00  0.1696115E+00
  0.1640620E+02 -0.3263390E+01  0.0000000E+00  0.2866907E+00 -0.6439248E+00 -0.2292797E+00  0.1721116E+00
  0.1664710E+02 -0.1639590E+01  0.0000000E+00  0.2906060E+00 -0.6447146E+00 -0.2322730E+00  0.1746456E+00
  0.1672760E+02  0.0000000E+00 -0.2568960E-01  0.2926541E+00 -0.6501474E+00 -0.2329510E+00  0.1771446E+00
  0.1664710E+02  0.1639590E+01 -0.2568960E-01  0.2941763E+00 -0.6604473E+00 -0.2323163E+00  0.1804684E+00
  0.1640620E+02  0.3263390E+01 -0.2568960E-01  0.2943557E+00 -0.6749804E+00 -0.2298092E+00  0.1839376E+00
  0.1600730E+02  0.4855770E+01 -0.2568960E-01  0.2932720E+00 -0.6941843E+00 -0.2254018E+00  0.1876233E+00
  0.1545430E+02  0.6401380E+01 -0.2568960E-01  0.2909709E+00 -0.7191824E+00 -0.2189103E+00  0.1916828E+00
  0.1475240E+02  0.7885340E+01 -0.2568960E-01  0.2881126E+00 -0.7499169E+00 -0.2108251E+00  0.1963712E+00
  0.1390850E+02  0.9293360E+01 -0.2568960E-01  0.2847183E+00 -0.7867172E+00 -0.2010605E+00  0.2015916E+00
  0.1293060E+02  0.1061190E+02 -0.2568960E-01  0.2807643E+00 -0.8305059E+00 -0.1893762E+00  0.2072806E+00
  0.1182820E+02  0.1182820E+02 -0.2568960E-01  0.2758616E+00 -0.8842753E+00 -0.1748549E+00  0.2133668E+00
  0.1061190E+02  0.1293060E+02 -0.2568960E-01  0.2696942E+00 -0.9445149E+00 -0.1580775E+00  0.2185097E+00
  0.9293360E+01  0.1390850E+02 -0.2568960E-01  0.2631709E+00 -0.1013152E+01 -0.1392672E+00  0.2233015E+00
  0.7885330E+01  0.1475240E+02 -0.2568960E-01  0.2550138E+00 -0.1093168E+01 -0.1172232E+00  0.2264746E+00
  0.6401380E+01  0.1545430E+02 -0.2568960E-01  0.2466900E+00 -0.1191314E+01 -0.9138369E-01  0.2291397E+00
  0.4855770E+01  0.1600730E+02 -0.2568960E-01  0.2378992E+00 -0.1316935E+01 -0.5974673E-01  0.2302746E+00
  0.3263390E+01  0.1640620E+02 -0.2568960E-01  0.2277580E+00 -0.1482605E+01 -0.2006018E-01  0.2268729E+00
  0.1639590E+01  0.1664710E+02 -0.2568960E-01  0.2171202E+00 -0.1680395E+01  0.2374839E-01  0.2158175E+00
 -0.7311870E-06  0.1672760E+02 -0.2568960E-01  0.1978052E+00 -0.1833295E+01  0.5132937E-01  0.1910293E+00
 -0.1639590E+01  0.1664710E+02 -0.2568960E-01  0.1614984E+00 -0.1948938E+01  0.5962430E-01  0.1500889E+00
 -0.3263390E+01  0.1640620E+02 -0.2568960E-01  0.1109277E+00 -0.2073189E+01  0.5341429E-01  0.9722070E-01
 -0.4855770E+01  0.1600730E+02 -0.2568960E-01  0.7730068E-01 -0.2288452E+01  0.5083448E-01  0.5823444E-01
 -0.6401380E+01  0.1545430E+02 -0.2568960E-01  0.6393317E-01 -0.2572288E+01  0.5384938E-01  0.3446295E-01
 -0.7885340E+01  0.1475240E+02 -0.2568960E-01  0.6321350E-01 -0.2835044E+01  0.6026653E-01  0.1907596E-01
 -0.9293360E+01  0.1390850E+02 -0.2568960E-01  0.6843498E-01 -0.3029943E+01  0.6800887E-01  0.7624907E-02
 -0.1061190E+02  0.1293060E+02 -0.2568960E-01  0.7664236E-01 -0.3136112E+01  0.7664121E-01  0.4200052E-03
 -0.1182820E+02  0.1182820E+02 -0.2568960E-01  0.8537176E-01  0.3075276E+01  0.8518410E-01 -0.5657393E-02
 -0.1293060E+02  0.1061190E+02 -0.2568960E-01  0.9431611E-01  0.3038868E+01  0.9381893E-01 -0.9671517E-02
 -0.1390850E+02  0.9293360E+01 -0.2568960E-01  0.1037312E+00  0.3025056E+01  0.1030276E+00 -0.1206112E-01
 -0.1475240E+02  0.7885330E+01 -0.2568960E-01  0.1129363E+00  0.3015281E+01  0.1120366E+00 -0.1422728E-01
 -0.1545430E+02  0.6401370E+01 -0.2568960E-01  0.1217403E+00  0.3006032E+01  0.1206235E+00 -0.1645265E-01
 -0.1600730E+02  0.4855770E+01 -0.2568960E-01  0.1301538E+00  0.2994953E+01  0.1287570E+00 -0.1901735E-01
 -0.1640620E+02  0.3263390E+01 -0.2568960E-01  0.1385288E+00  0.2988209E+01  0.1369025E+00 -0.2116482E-01
 -0.1664710E+02  0.1639590E+01 -0.2568960E-01  0.1465469E+00  0.2983048E+01  0.1447090E+00 -0.2313701E-01
 -0.1672760E+02 -0.1462370E-05 -0.2568960E-01  0.1540018E+00  0.2977891E+01  0.1519430E+00 -0.2509787E-01
 -0.1664710E+02 -0.1639590E+01 -0.2568960E-01  0.1607842E+00  0.2971335E+01  0.1584595E+00 -0.2724267E-01
 -0.1640620E+02 -0.3263400E+01 -0.2568960E-01  0.1670177E+00  0.2964498E+01  0.1644055E+00 -0.2942358E-01
 -0.1600730E+02 -0.4855770E+01 -0.2568960E-01  0.1727204E+00  0.2956526E+01  0.1697710E+00 -0.3178260E-01
 -0.1545430E+02 -0.6401380E+01 -0.2568960E-01  0.1780009E+00  0.2946316E+01  0.1746178E+00 -0.3453897E-01
 -0.1475240E+02 -0.7885340E+01 -0.2568960E-01  0.1828886E+00  0.2933319E+01  0.1789362E+00 -0.3781617E-01
 -0.1390850E+02 -0.9293360E+01 -0.2568960E-01  0.1872800E+00  0.2917992E+01  0.1826177E+00 -0.4152788E-01
 -0.1293060E+02 -0.1061190E+02 -0.2568960E-01  0.1915522E+00  0.2899763E+01  0.1859783E+00 -0.4587288E-01
 -0.1182820E+02 -0.1182820E+02 -0.2568960E-01  0.1958409E+00  0.2877879E+01  0.1890704E+00 -0.5104933E-01
 -0.1061190E+02 -0.1293060E+02 -0.2568960E-01  0.1986109E+00  0.2858005E+01  0.1906780E+00 -0.5557170E-01
 -0.9293350E+01 -0.1390850E+02 -0.2568960E-01  0.2008089E+00  0.2837863E+01  0.1916174E+00 -0.6005814E-01
 -0.7885340E+01 -0.1475240E+02 -0.2568960E-01  0.2011320E+00  0.2821062E+01  0.1908880E+00 -0.6337063E-01
 -0.6401370E+01 -0.1545430E+02 -0.2568960E-01  0.2013946E+00  0.2804031E+01  0.1900289E+00 -0.6669937E-01
 -0.4855760E+01 -0.1600730E+02 -0.2568960E-01  0.2005917E+00  0.2789195E+01  0.1882649E+00 -0.6923409E-01
 -0.3263390E+01 -0.1640620E+02 -0.2568960E-01  0.1949946E+00  0.2784561E+01  0.1826979E+00 -0.6814962E-01
 -0.1639590E+01 -0.1664710E+02 -0.2568960E-01  0.1782917E+00  0.2798162E+01  0.1678803E+00 -0.6003430E-01
  0.1994750E-06 -0.1672760E+02 -0.2568960E-01  0.1381055E+00  0.2868846E+01  0.1330004E+00 -0.3720259E-01
  0.1639600E+01 -0.1664710E+02 -0.2568960E-01  0.7664517E-01 -0.3101247E+01  0.7658280E-01  0.3091448E-02
  0.3263390E+01 -0.1640620E+02 -0.2568960E-01  0.5675671E-01 -0.1669991E+01  0.5620745E-02  0.5647770E-01
  0.4855770E+01 -0.1600730E+02 -0.2568960E-01  0.1077125E+00 -0.1097674E+01 -0.4908111E-01  0.9588033E-01
  0.6401380E+01 -0.1545430E+02 -0.2568960E-01  0.1476882E+00 -0.9441170E+00 -0.8661298E-01  0.1196244E+00
  0.7885340E+01 -0.1475240E+02 -0.2568960E-01  0.1768528E+00 -0.8653761E+00 -0.1146632E+00  0.1346449E+00
  0.9293360E+01 -0.1390850E+02 -0.2568960E-01  0.2007828E+00 -0.8107638E+00 -0.1383283E+00  0.1455301E+00
  0.1061190E+02 -0.1293060E+02 -0.2568960E-01  0.2185873E+00 -0.7693712E+00 -0.1570218E+00  0.1520676E+00
  0.1182820E+02 -0.1182820E+02 -0.2568960E-01  0.2346884E+00 -0.7356007E+00 -0.1740045E+00  0.1574836E+00
  0.1293060E+02 -0.1061190E+02 -0.2568960E-01  0.2473851E+00 -0.7077193E+00 -0.1879747E+00  0.1608257E+00
  0.1390850E+02 -0.9293360E+01 -0.2568960E-01  0.2569785E+00 -0.6851628E+00 -0.1989825E+00  0.1626157E+00
  0.1475240E+02 -0.7885330E+01 -0.2568960E-01  0.2655208E+00 -0.6676154E+00 -0.2085135E+00  0.1643879E+00
  0.1545430E+02 -0.6401380E+01 -0.2568960E-01  0.2733743E+00 -0.6550503E+00 -0.2167905E+00  0.1665394E+00
  0.1600730E+02 -0.4855760E+01 -0.2568960E-01  0.2807526E+00 -0.6475046E+00 -0.2239259E+00  0.1693494E+00
  0.1640620E+02 -0.3263390E+01 -0.2568960E-01  0.2862335E+00 -0.6439456E+00 -0.2289104E+00  0.1718419E+00
  0.1664710E+02 -0.1639590E+01 -0.2568960E-01  0.2901407E+00 -0.6447321E+00 -0.2318981E+00  0.1743700E+00
  0.1672760E+02  0.0000000E+00 -0.1027320E+00  0.2912649E+00 -0.6502117E+00 -0.2318339E+00  0.1763186E+00
  0.1664710E+02  0.1639590E+01 -0.1027320E+00  0.2927770E+00 -0.6605194E+00 -0.2311983E+00  0.1796266E+00
  0.1640620E+02  0.3263390E+01 -0.1027320E+00  0.2929576E+00 -0.6750672E+00 -0.2287017E+00  0.1830838E+00
  0.1600730E+02  0.4855770E+01 -0.1027320E+00  0.2918850E+00 -0.6942867E+00 -0.2243167E+00  0.1867590E+00
  0.1545430E+02  0.6401380E+01 -0.1027320E+00  0.2896020E+00 -0.7192903E+00 -0.2178599E+00  0.1908046E+00
  0.1475240E+02  0.7885340E+01 -0.1027320E+00  0.2867562E+00 -0.7500318E+00 -0.2098101E+00  0.1954708E+00
  0.1390850E+02  0.9293360E+01 -0.1027320E+00  0.2833715E+00 -0.7868376E+00 -0.2000853E+00  0.2006621E+00
  0.1293060E+02  0.1061190E+02 -0.1027320E+00  0.2794211E+00 -0.8306218E+00 -0.1884463E+00  0.2063108E+00
  0.1182820E+02  0.1182820E+02 -0.1027320E+00  0.2745351E+00 -0.8843426E+00 -0.1739999E+00  0.2123525E+00
  0.1061190E+02  0.1293060E+02 -0.1027320E+00  0.2684031E+00 -0.9445810E+00 -0.1573063E+00  0.2174740E+00
  0.9293360E+01  0.1390850E+02 -0.1027320E+00  0.2619002E+00 -0.1013240E+01 -0.1385752E+00  0.2222355E+00
  0.7885330E+01  0.1475240E+02 -0.1027320E+00  0.2538023E+00 -0.1093294E+01 -0.1166380E+00  0.2254134E+00
  0.6401380E+01  0.1545430E+02 -0.1027320E+00  0.2455132E+00 -0.1191464E+01 -0.9091374E-01  0.2280602E+00
  0.4855770E+01  0.1600730E+02 -0.1027320E+00  0.2367674E+00 -0.1317072E+01 -0.5943127E-01  0.2291871E+00
  0.3263390E+01  0.1640620E+02 -0.1027320E+00  0.2267162E+00 -0.1482867E+01 -0.1990932E-01  0.2258404E+00
  0.1639590E+01  0.1664710E+02 -0.1027320E+00  0.2161181E+00 -0.1680617E+01  0.2368658E-01  0.2148161E+00
 -0.7311870E-06  0.1672760E+02 -0.1027320E+00  0.1969081E+00 -0.1833616E+01  0.5115761E-01  0.1901465E+00
 -0.1639590E+01  0.1664710E+02 -0.1027320E+00  0.1607391E+00 -0.1949240E+01  0.5938905E-01  0.1493653E+00
 -0.3263390E+01  0.1640620E+02 -0.1027320E+00  0.1104021E+00 -0.2073687E+01  0.5320947E-01  0.9673356E-01
 -0.4855770E+01  0.1600730E+02 -0.1027320E+00  0.7693403E-01 -0.2288903E+01  0.5061953E-01  0.5793538E-01
 -0.6401380E+01  0.1545430E+02 -0.1027320E+00  0.6364711E-01 -0.2572749E+01  0.5362423E-01  0.3428405E-01
 -0.7885340E+01  0.1475240E+02 -0.1027320E+00  0.6292058E-01 -0.2835667E+01  0.5999909E-01  0.1895015E-01
 -0.9293360E+01  0.1390850E+02 -0.1027320E+00  0.6812730E-01 -0.3030106E+01  0.6770434E-01  0.7579594E-02
 -0.1061190E+02  0.1293060E+02 -0.1027320E+00  0.7628717E-01 -0.3136527E+01  0.7628619E-01  0.3864164E-03
 -0.1182820E+02  0.1182820E+02 -0.1027320E+00  0.8497947E-01  0.3075055E+01  0.8479142E-01 -0.5650144E-02
 -0.1293060E+02  0.1061190E+02 -0.1027320E+00  0.9389008E-01  0.3038683E+01  0.9339335E-01 -0.9645171E-02
 -0.1390850E+02  0.9293360E+01 -0.1027320E+00  0.1032569E+00  0.3024650E+01  0.1025516E+00 -0.1204768E-01
 -0.1475240E+02  0.7885330E+01 -0.1027320E+00  0.1124148E+00  0.3014795E+01  0.1115123E+00 -0.1421576E-01
 -0.1545430E+02  0.6401370E+01 -0.1027320E+00  0.1211768E+00  0.3005572E+01  0.1200576E+00 -0.1643182E-01
 -0.1600730E+02  0.4855770E+01 -0.1027320E+00  0.1295520E+00  0.2994638E+01  0.1281557E+00 -0.1896986E-01
 -0.1640620E+02  0.3263390E+01 -0.1027320E+00  0.1378841E+00  0.2987974E+01  0.1362603E+00 -0.2109841E-01
 -0.1664710E+02  0.1639590E+01 -0.1027320E+00  0.1458620E+00  0.2982860E+01  0.1440282E+00 -0.2305594E-01
 -0.1672760E+02 -0.1462370E-05 -0.1027320E+00  0.1532811E+00  0.2977718E+01  0.1512275E+00 -0.2500655E-01
 -0.1664710E+02 -0.1639590E+01 -0.1027320E+00  0.1600344E+00  0.2971183E+01  0.1577163E+00 -0.2713956E-01
 -0.1640620E+02 -0.3263400E+01 -0.1027320E+00  0.1662455E+00  0.2964328E+01  0.1636404E+00 -0.2931534E-01
 -0.1600730E+02 -0.4855770E+01 -0.1027320E+00  0.1719288E+00  0.2956328E+01  0.1689867E+00 -0.3167039E-01
 -0.1545430E+02 -0.6401380E+01 -0.1027320E+00  0.1771916E+00  0.2946106E+01  0.1738167E+00 -0.3441840E-01
 -0.1475240E+02 -0.7885340E+01 -0.1027320E+00  0.1820587E+00  0.2933114E+01  0.1781165E+00 -0.3768102E-01
 -0.1390850E+02 -0.9293360E+01 -0.1027320E+00  0.1864298E+00  0.2917821E+01  0.1817817E+00 -0.4137038E-01
 -0.1293060E+02 -0.1061190E+02 -0.1027320E+00  0.1906704E+00  0.2899652E+01  0.1851171E+00 -0.4568230E-01
 -0.1182820E+02 -0.1182820E+02 -0.1027320E+00  0.1949228E+00  0.2877824E+01  0.1881813E+00 -0.5082048E-01
 -0.1061190E+02 -0.1293060E+02 -0.1027320E+00  0.1976861E+00  0.2857952E+01  0.1897871E+00 -0.5532300E-01
 -0.9293350E+01 -0.1390850E+02 -0.1027320E+00  0.1998675E+00  0.2837840E+01  0.1907177E+00 -0.5978111E-01
 -0.7885340E+01 -0.1475240E+02 -0.1027320E+00  0.2002191E+00  0.2820984E+01  0.1900167E+00 -0.6309783E-01
 -0.6401370E+01 -0.1545430E+02 -0.1027320E+00  0.2004745E+00  0.2803968E+01  0.1891565E+00 -0.6640647E-01
 -0.4855760E+01 -0.1600730E+02 -0.1027320E+00  0.1996766E+00  0.2789148E+01  0.1874028E+00 -0.6892706E-01
 -0.3263390E+01 -0.1640620E+02 -0.1027320E+00  0.1941698E+00  0.2784417E+01  0.1819153E+00 -0.6788751E-01
 -0.1639590E+01 -0.1664710E+02 -0.1027320E+00  0.1775174E+00  0.2798063E+01  0.1671454E+00 -0.5979010E-01
  0.1994750E-06 -0.1672760E+02 -0.1027320E+00  0.1375257E+00  0.2868670E+01  0.1324355E+00 -0.3706963E-01
  0.1639600E+01 -0.1664710E+02 -0.1027320E+00  0.7630357E-01 -0.3101349E+01  0.7624179E-01  0.3069925E-02
  0.3263390E+01 -0.1640620E+02 -0.1027320E+00  0.5649463E-01 -0.1670092E+01  0.5600467E-02  0.5621636E-01
  0.4855770E+01 -0.1600730E+02 -0.1027320E+00  0.1072027E+00 -0.1097796E+01 -0.4883717E-01  0.9543240E-01
  0.6401380E+01 -0.1545430E+02 -0.1027320E+00  0.1469740E+00 -0.9442379E+00 -0.8617973E-01  0.1190564E+00
  0.7885340E+01 -0.1475240E+02 -0.1027320E+00  0.1760303E+00 -0.8654413E+00 -0.1141212E+00  0.1340262E+00
  0.9293360E+01 -0.1390850E+02 -0.1027320E+00  0.1998080E+00 -0.8108420E+00 -0.1376454E+00  0.1448344E+00
  0.1061190E+02 -0.1293060E+02 -0.1027320E+00  0.2175619E+00 -0.7694389E+00 -0.1562750E+00  0.1513648E+00
  0.1182820E+02 -0.1182820E+02 -0.1027320E+00  0.2335664E+00 -0.7356678E+00 -0.1731621E+00  0.1567423E+00
  0.1293060E+02 -0.1061190E+02 -0.1027320E+00  0.2461985E+00 -0.7077935E+00 -0.1870612E+00  0.1600681E+00
  0.1390850E+02 -0.9293360E+01 -0.1027320E+00  0.2557814E+00 -0.6852413E+00 -0.1980429E+00  0.1618738E+00
  0.1475240E+02 -0.7885330E+01 -0.1027320E+00  0.2643016E+00 -0.6677027E+00 -0.2075418E+00  0.1636512E+00
  0.1545430E+02 -0.6401380E+01 -0.1027320E+00  0.2721168E+00 -0.6551421E+00 -0.2157781E+00  0.1657931E+00
  0.1600730E+02 -0.4855760E+01 -0.1027320E+00  0.2794398E+00 -0.6475870E+00 -0.2228649E+00  0.1685759E+00
  0.1640620E+02 -0.3263390E+01 -0.1027320E+00  0.2848825E+00 -0.6440220E+00 -0.2278170E+00  0.1710482E+00
  0.1664710E+02 -0.1639590E+01 -0.1027320E+00  0.2887663E+00 -0.6448035E+00 -0.2307872E+00  0.1735605E+00
  0.1672760E+02  0.0000000E+00 -0.2310450E+00  0.2889973E+00 -0.6503511E+00 -0.2300047E+00  0.1749780E+00
  0.1664710E+02  0.1639590E+01 -0.2310450E+00  0.2904923E+00 -0.6606652E+00 -0.2293681E+00  0.1782583E+00
  0.1640620E+02  0.3263390E+01 -0.2310450E+00  0.2906757E+00 -0.6752345E+00 -0.2268900E+00  0.1816957E+00
  0.1600730E+02  0.4855770E+01 -0.2310450E+00  0.2896188E+00 -0.6944847E+00 -0.2225383E+00  0.1853530E+00
  0.1545430E+02  0.6401380E+01 -0.2310450E+00  0.2873658E+00 -0.7194891E+00 -0.2161400E+00  0.1893742E+00
  0.1475240E+02  0.7885340E+01 -0.2310450E+00  0.2845403E+00 -0.7502354E+00 -0.2081493E+00  0.1940027E+00
  0.1390850E+02  0.9293360E+01 -0.2310450E+00  0.2811678E+00 -0.7870523E+00 -0.1984865E+00  0.1991442E+00
  0.1293060E+02  0.1061190E+02 -0.2310450E+00  0.2772225E+00 -0.8308267E+00 -0.1869216E+00  0.2047258E+00
  0.1182820E+02  0.1182820E+02 -0.2310450E+00  0.2723630E+00 -0.8844606E+00 -0.1725983E+00  0.2106927E+00
  0.1061190E+02  0.1293060E+02 -0.2310450E+00  0.2662858E+00 -0.9446914E+00 -0.1560416E+00  0.2157757E+00
  0.9293360E+01  0.1390850E+02 -0.2310450E+00  0.2598129E+00 -0.1013378E+01 -0.1374402E+00  0.2204834E+00
  0.7885330E+01  0.1475240E+02 -0.2310450E+00  0.2518122E+00 -0.1093486E+01 -0.1156804E+00  0.2236681E+00
  0.6401380E+01  0.1545430E+02 -0.2310450E+00  0.2435763E+00 -0.1191688E+01 -0.9014570E-01  0.2262812E+00
  0.4855770E+01  0.1600730E+02 -0.2310450E+00  0.2349049E+00 -0.1317265E+01 -0.5891980E-01  0.2273956E+00
  0.3263390E+01  0.1640620E+02 -0.2310450E+00  0.2249999E+00 -0.1483307E+01 -0.1965998E-01  0.2241393E+00
  0.1639590E+01  0.1664710E+02 -0.2310450E+00  0.2144762E+00 -0.1681035E+01  0.2359571E-01  0.2131743E+00
 -0.7311870E-06  0.1672760E+02 -0.2310450E+00  0.1954582E+00 -0.1834231E+01  0.5089705E-01  0.1887152E+00
 -0.1639590E+01  0.1664710E+02 -0.2310450E+00  0.1595062E+00 -0.1949757E+01  0.5901006E-01  0.1481892E+00
 -0.3263390E+01  0.1640620E+02 -0.2310450E+00  0.1095429E+00 -0.2074482E+01  0.5287160E-01  0.9593877E-01
 -0.4855770E+01  0.1600730E+02 -0.2310450E+00  0.7632195E-01 -0.2289622E+01  0.5025813E-01  0.5743833E-01
 -0.6401380E+01  0.1545430E+02 -0.2310450E+00  0.6317240E-01 -0.2573454E+01  0.5324827E-01  0.3399079E-01
 -0.7885340E+01  0.1475240E+02 -0.2310450E+00  0.6243265E-01 -0.2836692E+01  0.5955307E-01  0.1874216E-01
 -0.9293360E+01  0.1390850E+02 -0.2310450E+00  0.6761715E-01 -0.3030433E+01  0.6719982E-01  0.7500848E-02
 -0.1061190E+02  0.1293060E+02 -0.2310450E+00  0.7569937E-01 -0.3137304E+01  0.7569868E-01  0.3246463E-03
 -0.1182820E+02  0.1182820E+02 -0.2310450E+00  0.8433231E-01  0.3074597E+01  0.8414312E-01 -0.5645700E-02
 -0.1293060E+02  0.1061190E+02 -0.2310450E+00  0.9318781E-01  0.3038283E+01  0.9269096E-01 -0.9610090E-02
 -0.1390850E+02  0.9293360E+01 -0.2310450E+00  0.1024770E+00  0.3023871E+01  0.1017678E+00 -0.1203590E-01
 -0.1475240E+02  0.7885330E+01 -0.2310450E+00  0.1115573E+00  0.3013852E+01  0.1106484E+00 -0.1421168E-01
 -0.1545430E+02  0.6401370E+01 -0.2310450E+00  0.1202499E+00  0.3004684E+01  0.1191247E+00 -0.1641188E-01
 -0.1600730E+02  0.4855770E+01 -0.2310450E+00  0.1285618E+00  0.2993971E+01  0.1271635E+00 -0.1890970E-01
 -0.1640620E+02  0.3263390E+01 -0.2310450E+00  0.1368244E+00  0.2987435E+01  0.1352018E+00 -0.2100908E-01
 -0.1664710E+02  0.1639590E+01 -0.2310450E+00  0.1447350E+00  0.2982399E+01  0.1429049E+00 -0.2294373E-01
 -0.1672760E+02 -0.1462370E-05 -0.2310450E+00  0.1520963E+00  0.2977296E+01  0.1500481E+00 -0.2487666E-01
 -0.1664710E+02 -0.1639590E+01 -0.2310450E+00  0.1588013E+00  0.2970788E+01  0.1564904E+00 -0.2699226E-01
 -0.1640620E+02 -0.3263400E+01 -0.2310450E+00  0.1649746E+00  0.2963914E+01  0.1623774E+00 -0.2915852E-01
 -0.1600730E+02 -0.4855770E+01 -0.2310450E+00  0.1706280E+00  0.2955880E+01  0.1676941E+00 -0.3150595E-01
 -0.1545430E+02 -0.6401380E+01 -0.2310450E+00  0.1758616E+00  0.2945635E+01  0.1724959E+00 -0.3424139E-01
 -0.1475240E+02 -0.7885340E+01 -0.2310450E+00  0.1806947E+00  0.2932672E+01  0.1767655E+00 -0.3747682E-01
 -0.1390850E+02 -0.9293360E+01 -0.2310450E+00  0.1850298E+00  0.2917433E+01  0.1804005E+00 -0.4112979E-01
 -0.1293060E+02 -0.1061190E+02 -0.2310450E+00  0.1892177E+00  0.2899370E+01  0.1836939E+00 -0.4538590E-01
 -0.1182820E+02 -0.1182820E+02 -0.2310450E+00  0.1934085E+00  0.2877661E+01  0.1867111E+00 -0.5045598E-01
 -0.1061190E+02 -0.1293060E+02 -0.2310450E+00  0.1961588E+00  0.2857787E+01  0.1883118E+00 -0.5492661E-01
 -0.9293350E+01 -0.1390850E+02 -0.2310450E+00  0.1983114E+00  0.2837740E+01  0.1892269E+00 -0.5933444E-01
 -0.7885340E+01 -0.1475240E+02 -0.2310450E+00  0.1987078E+00  0.2820806E+01  0.1885712E+00 -0.6265520E-01
 -0.6401370E+01 -0.1545430E+02 -0.2310450E+00  0.1989485E+00  0.2803826E+01  0.1877074E+00 -0.6592774E-01
 -0.4855760E+01 -0.1600730E+02 -0.2310450E+00  0.1981601E+00  0.2789033E+01  0.1859717E+00 -0.6842492E-01
 -0.3263390E+01 -0.1640620E+02 -0.2310450E+00  0.1928063E+00  0.2784142E+01  0.1806194E+00 -0.6746054E-01
 -0.1639590E+01 -0.1664710E+02 -0.2310450E+00  0.1762493E+00  0.2797835E+01  0.1659378E+00 -0.5940077E-01
  0.1994750E-06 -0.1672760E+02 -0.2310450E+00  0.1365990E+00  0.2868215E+01  0.1315263E+00 -0.3687966E-01
  0.1639600E+01 -0.1664710E+02 -0.2310450E+00  0.7575516E-01 -0.3101804E+01  0.7569520E-01  0.3013384E-02
  0.3263390E+01 -0.1640620E+02 -0.2310450E+00  0.5605277E-01 -0.1670359E+01  0.5571527E-02  0.5577519E-01
  0.4855770E+01 -0.1600730E+02 -0.2310450E+00  0.1063683E+00 -0.1097912E+01 -0.4844606E-01  0.9469527E-01
  0.6401380E+01 -0.1545430E+02 -0.2310450E+00  0.1457957E+00 -0.9444025E+00 -0.8546939E-01  0.1181159E+00
  0.7885340E+01 -0.1475240E+02 -0.2310450E+00  0.1746781E+00 -0.8655116E+00 -0.1132352E+00  0.1330047E+00
  0.9293360E+01 -0.1390850E+02 -0.2310450E+00  0.1982043E+00 -0.8109566E+00 -0.1365242E+00  0.1436875E+00
  0.1061190E+02 -0.1293060E+02 -0.2310450E+00  0.2158787E+00 -0.7695315E+00 -0.1550520E+00  0.1502081E+00
  0.1182820E+02 -0.1182820E+02 -0.2310450E+00  0.2317245E+00 -0.7357775E+00 -0.1717795E+00  0.1555251E+00
  0.1293060E+02 -0.1061190E+02 -0.2310450E+00  0.2442544E+00 -0.7079137E+00 -0.1855650E+00  0.1588264E+00
  0.1390850E+02 -0.9293360E+01 -0.2310450E+00  0.2538220E+00 -0.6853784E+00 -0.1965038E+00  0.1606607E+00
  0.1475240E+02 -0.7885330E+01 -0.2310450E+00  0.2623077E+00 -0.6678594E+00 -0.2059506E+00  0.1624489E+00
  0.1545430E+02 -0.6401380E+01 -0.2310450E+00  0.2700632E+00 -0.6553079E+00 -0.2141224E+00  0.1645774E+00
  0.1600730E+02 -0.4855760E+01 -0.2310450E+00  0.2772952E+00 -0.6477453E+00 -0.2211280E+00  0.1673171E+00
  0.1640620E+02 -0.3263390E+01 -0.2310450E+00  0.2826775E+00 -0.6441702E+00 -0.2260285E+00  0.1697578E+00
  0.1664710E+02 -0.1639590E+01 -0.2310450E+00  0.2865216E+00 -0.6449410E+00 -0.2289695E+00  0.1722429E+00
  0.1672760E+02  0.0000000E+00 -0.4105000E+00  0.2858612E+00 -0.6505448E+00 -0.2274752E+00  0.1731233E+00
  0.1664710E+02  0.1639590E+01 -0.4105000E+00  0.2873337E+00 -0.6608726E+00 -0.2268376E+00  0.1763671E+00
  0.1640620E+02  0.3263390E+01 -0.4105000E+00  0.2875187E+00 -0.6754763E+00 -0.2243822E+00  0.1797765E+00
  0.1600730E+02  0.4855770E+01 -0.4105000E+00  0.2864856E+00 -0.6947634E+00 -0.2200797E+00  0.1834092E+00
  0.1545430E+02  0.6401380E+01 -0.4105000E+00  0.2842748E+00 -0.7197790E+00 -0.2137608E+00  0.1873992E+00
  0.1475240E+02  0.7885340E+01 -0.4105000E+00  0.2814788E+00 -0.7505258E+00 -0.2058540E+00  0.1919751E+00
  0.1390850E+02  0.9293360E+01 -0.4105000E+00  0.2781228E+00 -0.7873548E+00 -0.1962774E+00  0.1970469E+00
  0.1293060E+02  0.1061190E+02 -0.4105000E+00  0.2741837E+00 -0.8311118E+00 -0.1848148E+00  0.2025343E+00
  0.1182820E+02  0.1182820E+02 -0.4105000E+00  0.2693623E+00 -0.8846251E+00 -0.1706624E+00  0.2083995E+00
  0.1061190E+02  0.1293060E+02 -0.4105000E+00  0.2633626E+00 -0.9448404E+00 -0.1542969E+00  0.2134300E+00
  0.9293360E+01  0.1390850E+02 -0.4105000E+00  0.2569315E+00 -0.1013576E+01 -0.1358729E+00  0.2180650E+00
  0.7885330E+01  0.1475240E+02 -0.4105000E+00  0.2490648E+00 -0.1093759E+01 -0.1143580E+00  0.2212589E+00
  0.6401380E+01  0.1545430E+02 -0.4105000E+00  0.2409079E+00 -0.1192015E+01 -0.8908489E-01  0.2238314E+00
  0.4855770E+01  0.1600730E+02 -0.4105000E+00  0.2323328E+00 -0.1317539E+01 -0.5821300E-01  0.2249217E+00
  0.3263390E+01  0.1640620E+02 -0.4105000E+00  0.2226122E+00 -0.1483826E+01 -0.1933617E-01  0.2217709E+00
  0.1639590E+01  0.1664710E+02 -0.4105000E+00  0.2121578E+00 -0.1681352E+01  0.2340751E-01  0.2108626E+00
 -0.7311870E-06  0.1672760E+02 -0.4105000E+00  0.1933617E+00 -0.1834739E+01  0.5044593E-01  0.1866653E+00
 -0.1639590E+01  0.1664710E+02 -0.4105000E+00  0.1577341E+00 -0.1950270E+01  0.5842969E-01  0.1465129E+00
 -0.3263390E+01  0.1640620E+02 -0.4105000E+00  0.1083433E+00 -0.2075508E+01  0.5238993E-01  0.9483437E-01
 -0.4855770E+01  0.1600730E+02 -0.4105000E+00  0.7547633E-01 -0.2290624E+01  0.4975818E-01  0.5675209E-01
 -0.6401380E+01  0.1545430E+02 -0.4105000E+00  0.6251299E-01 -0.2574543E+01  0.5272903E-01  0.3357862E-01
 -0.7885340E+01  0.1475240E+02 -0.4105000E+00  0.6175619E-01 -0.2838181E+01  0.5893533E-01  0.1845140E-01
 -0.9293360E+01  0.1390850E+02 -0.4105000E+00  0.6690988E-01 -0.3030884E+01  0.6650026E-01  0.7392371E-02
 -0.1061190E+02  0.1293060E+02 -0.4105000E+00  0.7488506E-01 -0.3138403E+01  0.7488468E-01  0.2388677E-03
 -0.1182820E+02  0.1182820E+02 -0.4105000E+00  0.8343588E-01  0.3073957E+01  0.8324511E-01 -0.5638938E-02