 VARIABLES="X" "Y" "Z" "abs(eta) (m)" "angle(phi) (rad)" "PRE1" "PRE2"
ZONE N=   3200 ,E =    3136 ,F=FEPOINT,ET=QUADRILATERAL
  0.1672760E+02  0.0000000E+00  0.0000000E+00  0.1907615E+00  0.1906927E+01  0.6292009E-01 -0.1800861E+00
  0.1664710E+02  0.1639590E+01  0.0000000E+00  0.1911309E+00  0.1905676E+01  0.6281622E-01 -0.1805135E+00
  0.1640620E+02  0.3263390E+01  0.0000000E+00  0.1921001E+00  0.1902192E+01  0.6250229E-01 -0.1816477E+00
  0.1600730E+02  0.4855770E+01  0.0000000E+00  0.1933397E+00  0.1896989E+01  0.6195358E-01 -0.1831447E+00
  0.1545430E+02  0.6401380E+01  0.0000000E+00  0.1943023E+00  0.1890864E+01  0.6113346E-01 -0.1844345E+00
  0.1475240E+02  0.7885340E+01  0.0000000E+00  0.1925986E+00  0.1886936E+01  0.5987885E-01 -0.1830539E+00
  0.1390850E+02  0.9293360E+01  0.0000000E+00  0.1887948E+00  0.1884382E+01  0.5823785E-01 -0.1795879E+00
  0.1293060E+02  0.1061190E+02  0.0000000E+00  0.1850619E+00  0.1880647E+01  0.5642832E-01 -0.1762491E+00
  0.1182820E+02  0.1182820E+02  0.0000000E+00  0.1813366E+00  0.1875855E+01  0.5446424E-01 -0.1729642E+00
  0.1061190E+02  0.1293060E+02  0.0000000E+00  0.1763462E+00  0.1871563E+01  0.5224295E-01 -0.1684299E+00
  0.9293360E+01  0.1390850E+02  0.0000000E+00  0.1693364E+00  0.1867985E+01  0.4958728E-01 -0.1619134E+00
  0.7885330E+01  0.1475240E+02  0.0000000E+00  0.1614982E+00  0.1864349E+01  0.4673021E-01 -0.1545896E+00
  0.6401380E+01  0.1545430E+02  0.0000000E+00  0.1478568E+00  0.1867604E+01  0.4324346E-01 -0.1413918E+00
  0.4855770E+01  0.1600730E+02  0.0000000E+00  0.1268290E+00  0.1882831E+01  0.3893595E-01 -0.1207045E+00
  0.3263390E+01  0.1640620E+02  0.0000000E+00  0.9116627E-01  0.1940716E+01  0.3296029E-01 -0.8499946E-01
  0.1639590E+01  0.1664710E+02  0.0000000E+00  0.3723256E-01  0.2305364E+01  0.2495572E-01 -0.2763105E-01
 -0.7311870E-06  0.1672760E+02  0.0000000E+00  0.3688388E-01 -0.2060123E+01  0.1733660E-01  0.3255554E-01
 -0.1639590E+01  0.1664710E+02  0.0000000E+00  0.9344312E-01 -0.1685849E+01  0.1072720E-01  0.9282534E-01
 -0.3263390E+01  0.1640620E+02  0.0000000E+00  0.1504914E+00 -0.1603456E+01  0.4914102E-02  0.1504112E+00
 -0.4855770E+01  0.1600730E+02  0.0000000E+00  0.1863201E+00 -0.1570831E+01  0.6476670E-05  0.1863201E+00
 -0.6401380E+01  0.1545430E+02  0.0000000E+00  0.2071994E+00 -0.1549423E+01 -0.4428152E-02  0.2071521E+00
 -0.7885340E+01  0.1475240E+02  0.0000000E+00  0.2206224E+00 -0.1532435E+01 -0.8461352E-02  0.2204601E+00
 -0.9293360E+01  0.1390850E+02  0.0000000E+00  0.2281888E+00 -0.1517928E+01 -0.1205829E-01  0.2278700E+00
 -0.1061190E+02  0.1293060E+02  0.0000000E+00  0.2349647E+00 -0.1505221E+01 -0.1539682E-01  0.2344597E+00
 -0.1182820E+02  0.1182820E+02  0.0000000E+00  0.2397665E+00 -0.1493564E+01 -0.1849929E-01  0.2390517E+00
 -0.1293060E+02  0.1061190E+02  0.0000000E+00  0.2433143E+00 -0.1483325E+01 -0.2125586E-01  0.2423841E+00
 -0.1390850E+02  0.9293360E+01  0.0000000E+00  0.2469022E+00 -0.1474707E+01 -0.2368805E-01  0.2457632E+00
 -0.1475240E+02  0.7885330E+01  0.0000000E+00  0.2505938E+00 -0.1467711E+01 -0.2578691E-01  0.2492635E+00
 -0.1545430E+02  0.6401370E+01  0.0000000E+00  0.2521683E+00 -0.1461655E+01 -0.2746746E-01  0.2506679E+00
 -0.1600730E+02  0.4855770E+01  0.0000000E+00  0.2510387E+00 -0.1456300E+01 -0.2868021E-01  0.2493950E+00
 -0.1640620E+02  0.3263390E+01  0.0000000E+00  0.2496611E+00 -0.1452222E+01 -0.2953420E-01  0.2479080E+00
 -0.1664710E+02  0.1639590E+01  0.0000000E+00  0.2486018E+00 -0.1449648E+01 -0.3004399E-01  0.2467797E+00
 -0.1672760E+02 -0.1462370E-05  0.0000000E+00  0.2481998E+00 -0.1448776E+01 -0.3021033E-01  0.2463544E+00
 -0.1664710E+02 -0.1639590E+01  0.0000000E+00  0.2486018E+00 -0.1449648E+01 -0.3004402E-01  0.2467797E+00
 -0.1640620E+02 -0.3263400E+01  0.0000000E+00  0.2496610E+00 -0.1452223E+01 -0.2953374E-01  0.2479080E+00
 -0.1600730E+02 -0.4855770E+01  0.0000000E+00  0.2510386E+00 -0.1456300E+01 -0.2868034E-01  0.2493949E+00
 -0.1545430E+02 -0.6401380E+01  0.0000000E+00  0.2521682E+00 -0.1461654E+01 -0.2746765E-01  0.2506678E+00
 -0.1475240E+02 -0.7885340E+01  0.0000000E+00  0.2505938E+00 -0.1467709E+01 -0.2578719E-01  0.2492634E+00
 -0.1390850E+02 -0.9293360E+01  0.0000000E+00  0.2469024E+00 -0.1474708E+01 -0.2368795E-01  0.2457634E+00
 -0.1293060E+02 -0.1061190E+02  0.0000000E+00  0.2433144E+00 -0.1483326E+01 -0.2125571E-01  0.2423842E+00
 -0.1182820E+02 -0.1182820E+02  0.0000000E+00  0.2397668E+00 -0.1493565E+01 -0.1849919E-01  0.2390521E+00
 -0.1061190E+02 -0.1293060E+02  0.0000000E+00  0.2349648E+00 -0.1505222E+01 -0.1539669E-01  0.2344598E+00
 -0.9293350E+01 -0.1390850E+02  0.0000000E+00  0.2281893E+00 -0.1517929E+01 -0.1205810E-01  0.2278705E+00
 -0.7885340E+01 -0.1475240E+02  0.0000000E+00  0.2206227E+00 -0.1532437E+01 -0.8460810E-02  0.2204604E+00
 -0.6401370E+01 -0.1545430E+02  0.0000000E+00  0.2071994E+00 -0.1549432E+01 -0.4426430E-02  0.2071521E+00
 -0.4855760E+01 -0.1600730E+02  0.0000000E+00  0.1863202E+00 -0.1570831E+01  0.6452425E-05  0.1863202E+00
 -0.3263390E+01 -0.1640620E+02  0.0000000E+00  0.1504921E+00 -0.1603462E+01  0.4914990E-02  0.1504118E+00
 -0.1639590E+01 -0.1664710E+02  0.0000000E+00  0.9344345E-01 -0.1685852E+01  0.1072745E-01  0.9282564E-01
  0.1994750E-06 -0.1672760E+02  0.0000000E+00  0.3688435E-01 -0.2060142E+01  0.1733742E-01  0.3255563E-01
  0.1639600E+01 -0.1664710E+02  0.0000000E+00  0.3723315E-01  0.2305355E+01  0.2495587E-01 -0.2763172E-01
  0.3263390E+01 -0.1640620E+02  0.0000000E+00  0.9116612E-01  0.1940719E+01  0.3296047E-01 -0.8499923E-01
  0.4855770E+01 -0.1600730E+02  0.0000000E+00  0.1268290E+00  0.1882835E+01  0.3893640E-01 -0.1207043E+00
  0.6401380E+01 -0.1545430E+02  0.0000000E+00  0.1478575E+00  0.1867612E+01  0.4324484E-01 -0.1413921E+00
  0.7885340E+01 -0.1475240E+02  0.0000000E+00  0.1614981E+00  0.1864350E+01  0.4673044E-01 -0.1545894E+00
  0.9293360E+01 -0.1390850E+02  0.0000000E+00  0.1693367E+00  0.1867987E+01  0.4958767E-01 -0.1619135E+00
  0.1061190E+02 -0.1293060E+02  0.0000000E+00  0.1763461E+00  0.1871566E+01  0.5224343E-01 -0.1684298E+00
  0.1182820E+02 -0.1182820E+02  0.0000000E+00  0.1813365E+00  0.1875852E+01  0.5446367E-01 -0.1729643E+00
  0.1293060E+02 -0.1061190E+02  0.0000000E+00  0.1850619E+00  0.1880647E+01  0.5642835E-01 -0.1762491E+00
  0.1390850E+02 -0.9293360E+01  0.0000000E+00  0.1887945E+00  0.1884383E+01  0.5823794E-01 -0.1795876E+00
  0.1475240E+02 -0.7885330E+01  0.0000000E+00  0.1925986E+00  0.1886931E+01  0.5987801E-01 -0.1830542E+00
  0.1545430E+02 -0.6401380E+01  0.0000000E+00  0.1943027E+00  0.1890866E+01  0.6113402E-01 -0.1844347E+00
  0.1600730E+02 -0.4855760E+01  0.0000000E+00  0.1933395E+00  0.1896990E+01  0.6195359E-01 -0.1831446E+00
  0.1640620E+02 -0.3263390E+01  0.0000000E+00  0.1921001E+00  0.1902193E+01  0.6250251E-01 -0.1816477E+00
  0.1664710E+02 -0.1639590E+01  0.0000000E+00  0.1911309E+00  0.1905675E+01  0.6281604E-01 -0.1805136E+00
  0.1672760E+02  0.0000000E+00 -0.2568960E-01  0.1906361E+00  0.1906908E+01  0.6287530E-01 -0.1799689E+00
  0.1664710E+02  0.1639590E+01 -0.2568960E-01  0.1910038E+00  0.1905666E+01  0.6277265E-01 -0.1803942E+00
  0.1640620E+02  0.3263390E+01 -0.2568960E-01  0.1919648E+00  0.1902197E+01  0.6245911E-01 -0.1815195E+00
  0.1600730E+02  0.4855770E+01 -0.2568960E-01  0.1931924E+00  0.1897002E+01  0.6190874E-01 -0.1830044E+00
  0.1545430E+02  0.6401380E+01 -0.2568960E-01  0.1941441E+00  0.1890892E+01  0.6108879E-01 -0.1842827E+00
  0.1475240E+02  0.7885340E+01 -0.2568960E-01  0.1924456E+00  0.1886960E+01  0.5983562E-01 -0.1829071E+00
  0.1390850E+02  0.9293360E+01 -0.2568960E-01  0.1886591E+00  0.1884385E+01  0.5819639E-01 -0.1794587E+00
  0.1293060E+02  0.1061190E+02 -0.2568960E-01  0.1849359E+00  0.1880640E+01  0.5638870E-01 -0.1761295E+00
  0.1182820E+02  0.1182820E+02 -0.2568960E-01  0.1812124E+00  0.1875849E+01  0.5442588E-01 -0.1728461E+00
  0.1061190E+02  0.1293060E+02 -0.2568960E-01  0.1762237E+00  0.1871554E+01  0.5220526E-01 -0.1683134E+00
  0.9293360E+01  0.1390850E+02 -0.2568960E-01  0.1692294E+00  0.1867974E+01  0.4955424E-01 -0.1618115E+00
  0.7885330E+01  0.1475240E+02 -0.2568960E-01  0.1613847E+00  0.1864349E+01  0.4669742E-01 -0.1544810E+00
  0.6401380E+01  0.1545430E+02 -0.2568960E-01  0.1477665E+00  0.1867595E+01  0.4321587E-01 -0.1413058E+00
  0.4855770E+01  0.1600730E+02 -0.2568960E-01  0.1267564E+00  0.1882793E+01  0.3890910E-01 -0.1206369E+00
  0.3263390E+01  0.1640620E+02 -0.2568960E-01  0.9109497E-01  0.1940723E+01  0.3293510E-01 -0.8493275E-01
  0.1639590E+01  0.1664710E+02 -0.2568960E-01  0.3719735E-01  0.2305540E+01  0.2493700E-01 -0.2760052E-01
 -0.7311870E-06  0.1672760E+02 -0.2568960E-01  0.3685634E-01 -0.2060149E+01  0.1732451E-01  0.3253078E-01
 -0.1639590E+01  0.1664710E+02 -0.2568960E-01  0.9336509E-01 -0.1685851E+01  0.1071841E-01  0.9274781E-01
 -0.3263390E+01  0.1640620E+02 -0.2568960E-01  0.1503776E+00 -0.1603463E+01  0.4911521E-02  0.1502974E+00
 -0.4855770E+01  0.1600730E+02 -0.2568960E-01  0.1862043E+00 -0.1570829E+01  0.6116035E-05  0.1862043E+00
 -0.6401380E+01  0.1545430E+02 -0.2568960E-01  0.2070642E+00 -0.1549432E+01 -0.4423497E-02  0.2070169E+00
 -0.7885340E+01  0.1475240E+02 -0.2568960E-01  0.2204668E+00 -0.1532437E+01 -0.8454941E-02  0.2203046E+00
 -0.9293360E+01  0.1390850E+02 -0.2568960E-01  0.2280395E+00 -0.1517934E+01 -0.1204917E-01  0.2277209E+00
 -0.1061190E+02  0.1293060E+02 -0.2568960E-01  0.2348002E+00 -0.1505222E+01 -0.1538582E-01  0.2342956E+00
 -0.1182820E+02  0.1182820E+02 -0.2568960E-01  0.2395997E+00 -0.1493566E+01 -0.1848607E-01  0.2388856E+00
 -0.1293060E+02  0.1061190E+02 -0.2568960E-01  0.2431459E+00 -0.1483332E+01 -0.2123947E-01  0.2422165E+00
 -0.1390850E+02  0.9293360E+01 -0.2568960E-01  0.2467239E+00 -0.1474715E+01 -0.2366922E-01  0.2455859E+00
 -0.1475240E+02  0.7885330E+01 -0.2568960E-01  0.2503979E+00 -0.1467710E+01 -0.2576687E-01  0.2490686E+00
 -0.1545430E+02  0.6401370E+01 -0.2568960E-01  0.2519670E+00 -0.1461651E+01 -0.2744645E-01  0.2504677E+00
 -0.1600730E+02  0.4855770E+01 -0.2568960E-01  0.2508491E+00 -0.1456302E+01 -0.2865800E-01  0.2492068E+00
 -0.1640620E+02  0.3263390E+01 -0.2568960E-01  0.2494834E+00 -0.1452226E+01 -0.2951212E-01  0.2477317E+00
 -0.1664710E+02  0.1639590E+01 -0.2568960E-01  0.2484324E+00 -0.1449652E+01 -0.3002255E-01  0.2466116E+00
 -0.1672760E+02 -0.1462370E-05 -0.2568960E-01  0.2480328E+00 -0.1448777E+01 -0.3018984E-01  0.2461886E+00
 -0.1664710E+02 -0.1639590E+01 -0.2568960E-01  0.2484322E+00 -0.1449654E+01 -0.3002207E-01  0.2466115E+00
 -0.1640620E+02 -0.3263400E+01 -0.2568960E-01  0.2494833E+00 -0.1452225E+01 -0.2951233E-01  0.2477316E+00
 -0.1600730E+02 -0.4855770E+01 -0.2568960E-01  0.2508495E+00 -0.1456303E+01 -0.2865792E-01  0.2492071E+00
 -0.1545430E+02 -0.6401380E+01 -0.2568960E-01  0.2519671E+00 -0.1461649E+01 -0.2744689E-01  0.2504678E+00
 -0.1475240E+02 -0.7885340E+01 -0.2568960E-01  0.2503980E+00 -0.1467711E+01 -0.2576659E-01  0.2490687E+00
 -0.1390850E+02 -0.9293360E+01 -0.2568960E-01  0.2467242E+00 -0.1474713E+01 -0.2366952E-01  0.2455862E+00
 -0.1293060E+02 -0.1061190E+02 -0.2568960E-01  0.2431458E+00 -0.1483330E+01 -0.2123985E-01  0.2422163E+00
 -0.1182820E+02 -0.1182820E+02 -0.2568960E-01  0.2395998E+00 -0.1493567E+01 -0.1848581E-01  0.2388856E+00
 -0.1061190E+02 -0.1293060E+02 -0.2568960E-01  0.2348002E+00 -0.1505223E+01 -0.1538567E-01  0.2342956E+00
 -0.9293350E+01 -0.1390850E+02 -0.2568960E-01  0.2280399E+00 -0.1517934E+01 -0.1204910E-01  0.2277213E+00
 -0.7885340E+01 -0.1475240E+02 -0.2568960E-01  0.2204668E+00 -0.1532434E+01 -0.8455525E-02  0.2203046E+00
 -0.6401370E+01 -0.1545430E+02 -0.2568960E-01  0.2070645E+00 -0.1549426E+01 -0.4424676E-02  0.2070172E+00
 -0.4855760E+01 -0.1600730E+02 -0.2568960E-01  0.1862046E+00 -0.1570828E+01  0.5983836E-05  0.1862046E+00
 -0.3263390E+01 -0.1640620E+02 -0.2568960E-01  0.1503778E+00 -0.1603464E+01  0.4911557E-02  0.1502975E+00
 -0.1639590E+01 -0.1664710E+02 -0.2568960E-01  0.9336558E-01 -0.1685853E+01  0.1071863E-01  0.9274828E-01
  0.1994750E-06 -0.1672760E+02 -0.2568960E-01  0.3685639E-01 -0.2060154E+01  0.1732467E-01  0.3253074E-01
  0.1639600E+01 -0.1664710E+02 -0.2568960E-01  0.3719728E-01  0.2305531E+01  0.2493668E-01 -0.2760072E-01
  0.3263390E+01 -0.1640620E+02 -0.2568960E-01  0.9109508E-01  0.1940722E+01  0.3293505E-01 -0.8493289E-01
  0.4855770E+01 -0.1600730E+02 -0.2568960E-01  0.1267564E+00  0.1882799E+01  0.3890981E-01 -0.1206367E+00
  0.6401380E+01 -0.1545430E+02 -0.2568960E-01  0.1477661E+00  0.1867597E+01  0.4321603E-01 -0.1413054E+00
  0.7885340E+01 -0.1475240E+02 -0.2568960E-01  0.1613845E+00  0.1864349E+01  0.4669731E-01 -0.1544808E+00
  0.9293360E+01 -0.1390850E+02 -0.2568960E-01  0.1692295E+00  0.1867973E+01  0.4955412E-01 -0.1618116E+00
  0.1061190E+02 -0.1293060E+02 -0.2568960E-01  0.1762237E+00  0.1871557E+01  0.5220578E-01 -0.1683133E+00
  0.1182820E+02 -0.1182820E+02 -0.2568960E-01  0.1812124E+00  0.1875854E+01  0.5442679E-01 -0.1728458E+00
  0.1293060E+02 -0.1061190E+02 -0.2568960E-01  0.1849361E+00  0.1880639E+01  0.5638862E-01 -0.1761297E+00
  0.1390850E+02 -0.9293360E+01 -0.2568960E-01  0.1886591E+00  0.1884387E+01  0.5819676E-01 -0.1794586E+00
  0.1475240E+02 -0.7885330E+01 -0.2568960E-01  0.1924455E+00  0.1886958E+01  0.5983523E-01 -0.1829071E+00
  0.1545430E+02 -0.6401380E+01 -0.2568960E-01  0.1941443E+00  0.1890893E+01  0.6108917E-01 -0.1842827E+00
  0.1600730E+02 -0.4855760E+01 -0.2568960E-01  0.1931928E+00  0.1896997E+01  0.6190795E-01 -0.1830050E+00
  0.1640620E+02 -0.3263390E+01 -0.2568960E-01  0.1919644E+00  0.1902196E+01  0.6245885E-01 -0.1815192E+00
  0.1664710E+02 -0.1639590E+01 -0.2568960E-01  0.1910031E+00  0.1905664E+01  0.6277213E-01 -0.1803935E+00
  0.1672760E+02  0.0000000E+00 -0.1027320E+00  0.1902793E+00  0.1906832E+01  0.6274405E-01 -0.1796369E+00
  0.1664710E+02  0.1639590E+01 -0.1027320E+00  0.1906374E+00  0.1905606E+01  0.6264140E-01 -0.1800519E+00
  0.1640620E+02  0.3263390E+01 -0.1027320E+00  0.1915757E+00  0.1902176E+01  0.6232885E-01 -0.1811529E+00
  0.1600730E+02  0.4855770E+01 -0.1027320E+00  0.1927693E+00  0.1897019E+01  0.6177619E-01 -0.1826026E+00
  0.1545430E+02  0.6401380E+01 -0.1027320E+00  0.1936844E+00  0.1890954E+01  0.6095559E-01 -0.1838425E+00
  0.1475240E+02  0.7885340E+01 -0.1027320E+00  0.1920029E+00  0.1887006E+01  0.5970651E-01 -0.1824836E+00
  0.1390850E+02  0.9293360E+01 -0.1027320E+00  0.1882659E+00  0.1884379E+01  0.5807415E-01 -0.1790850E+00
  0.1293060E+02  0.1061190E+02 -0.1027320E+00  0.1845694E+00  0.1880610E+01  0.5627171E-01 -0.1757822E+00
  0.1182820E+02  0.1182820E+02 -0.1027320E+00  0.1808492E+00  0.1875827E+01  0.5431304E-01 -0.1725008E+00
  0.1061190E+02  0.1293060E+02 -0.1027320E+00  0.1758648E+00  0.1871527E+01  0.5209436E-01 -0.1679720E+00
  0.9293360E+01  0.1390850E+02 -0.1027320E+00  0.1689154E+00  0.1867918E+01  0.4945325E-01 -0.1615141E+00
  0.7885330E+01  0.1475240E+02 -0.1027320E+00  0.1610521E+00  0.1864342E+01  0.4660007E-01 -0.1541629E+00
  0.6401380E+01  0.1545430E+02 -0.1027320E+00  0.1474955E+00  0.1867533E+01  0.4312782E-01 -0.1410493E+00
  0.4855770E+01  0.1600730E+02 -0.1027320E+00  0.1265402E+00  0.1882700E+01  0.3883155E-01 -0.1204348E+00
  0.3263390E+01  0.1640620E+02 -0.1027320E+00  0.9090093E-01  0.1940721E+01  0.3286481E-01 -0.8475189E-01
  0.1639590E+01  0.1664710E+02 -0.1027320E+00  0.3709180E-01  0.2305920E+01  0.2487668E-01 -0.2751277E-01
 -0.7311870E-06  0.1672760E+02 -0.1027320E+00  0.3677475E-01 -0.2060067E+01  0.1728347E-01  0.3246019E-01
 -0.1639590E+01  0.1664710E+02 -0.1027320E+00  0.9313265E-01 -0.1685887E+01  0.1069504E-01  0.9251653E-01
 -0.3263390E+01  0.1640620E+02 -0.1027320E+00  0.1500525E+00 -0.1603454E+01  0.4899415E-02  0.1499725E+00
 -0.4855770E+01  0.1600730E+02 -0.1027320E+00  0.1858585E+00 -0.1570810E+01  0.2616059E-05  0.1858585E+00
 -0.6401380E+01  0.1545430E+02 -0.1027320E+00  0.2066648E+00 -0.1549434E+01 -0.4414417E-02  0.2066176E+00
 -0.7885340E+01  0.1475240E+02 -0.1027320E+00  0.2200033E+00 -0.1532446E+01 -0.8435042E-02  0.2198415E+00
 -0.9293360E+01  0.1390850E+02 -0.1027320E+00  0.2275972E+00 -0.1517937E+01 -0.1202500E-01  0.2272794E+00
 -0.1061190E+02  0.1293060E+02 -0.1027320E+00  0.2343135E+00 -0.1505220E+01 -0.1535434E-01  0.2338099E+00
 -0.1182820E+02  0.1182820E+02 -0.1027320E+00  0.2391086E+00 -0.1493573E+01 -0.1844637E-01  0.2383960E+00
 -0.1293060E+02  0.1061190E+02 -0.1027320E+00  0.2426518E+00 -0.1483345E+01 -0.2119320E-01  0.2417245E+00
 -0.1390850E+02  0.9293360E+01 -0.1027320E+00  0.2462026E+00 -0.1474725E+01 -0.2361660E-01  0.2450673E+00
 -0.1475240E+02  0.7885330E+01 -0.1027320E+00  0.2498255E+00 -0.1467713E+01 -0.2570731E-01  0.2484993E+00
 -0.1545430E+02  0.6401370E+01 -0.1027320E+00  0.2513792E+00 -0.1461642E+01 -0.2738478E-01  0.2498832E+00
 -0.1600730E+02  0.4855770E+01 -0.1027320E+00  0.2502989E+00 -0.1456303E+01 -0.2859507E-01  0.2486602E+00
 -0.1640620E+02  0.3263390E+01 -0.1027320E+00  0.2489686E+00 -0.1452236E+01 -0.2944868E-01  0.2472208E+00
 -0.1664710E+02  0.1639590E+01 -0.1027320E+00  0.2479420E+00 -0.1449668E+01 -0.2995945E-01  0.2461253E+00
 -0.1672760E+02 -0.1462370E-05 -0.1027320E+00  0.2475526E+00 -0.1448794E+01 -0.3012720E-01  0.2457125E+00
 -0.1664710E+02 -0.1639590E+01 -0.1027320E+00  0.2479421E+00 -0.1449666E+01 -0.2995987E-01  0.2461253E+00
 -0.1640620E+02 -0.3263400E+01 -0.1027320E+00  0.2489687E+00 -0.1452233E+01 -0.2944938E-01  0.2472209E+00
 -0.1600730E+02 -0.4855770E+01 -0.1027320E+00  0.2502989E+00 -0.1456304E+01 -0.2859477E-01  0.2486602E+00
 -0.1545430E+02 -0.6401380E+01 -0.1027320E+00  0.2513793E+00 -0.1461643E+01 -0.2738453E-01  0.2498833E+00
 -0.1475240E+02 -0.7885340E+01 -0.1027320E+00  0.2498253E+00 -0.1467711E+01 -0.2570762E-01  0.2484991E+00
 -0.1390850E+02 -0.9293360E+01 -0.1027320E+00  0.2462025E+00 -0.1474727E+01 -0.2361610E-01  0.2450673E+00
 -0.1293060E+02 -0.1061190E+02 -0.1027320E+00  0.2426520E+00 -0.1483346E+01 -0.2119307E-01  0.2417247E+00
 -0.1182820E+02 -0.1182820E+02 -0.1027320E+00  0.2391087E+00 -0.1493574E+01 -0.1844619E-01  0.2383961E+00
 -0.1061190E+02 -0.1293060E+02 -0.1027320E+00  0.2343135E+00 -0.1505220E+01 -0.1535442E-01  0.2338099E+00
 -0.9293350E+01 -0.1390850E+02 -0.1027320E+00  0.2275969E+00 -0.1517936E+01 -0.1202520E-01  0.2272790E+00
 -0.7885340E+01 -0.1475240E+02 -0.1027320E+00  0.2200034E+00 -0.1532442E+01 -0.8435996E-02  0.2198416E+00
 -0.6401370E+01 -0.1545430E+02 -0.1027320E+00  0.2066651E+00 -0.1549431E+01 -0.4415089E-02  0.2066179E+00
 -0.4855760E+01 -0.1600730E+02 -0.1027320E+00  0.1858590E+00 -0.1570811E+01  0.2773971E-05  0.1858590E+00
 -0.3263390E+01 -0.1640620E+02 -0.1027320E+00  0.1500531E+00 -0.1603452E+01  0.4899251E-02  0.1499731E+00
 -0.1639590E+01 -0.1664710E+02 -0.1027320E+00  0.9313273E-01 -0.1685887E+01  0.1069501E-01  0.9251661E-01
  0.1994750E-06 -0.1672760E+02 -0.1027320E+00  0.3677510E-01 -0.2060077E+01  0.1728396E-01  0.3246032E-01
  0.1639600E+01 -0.1664710E+02 -0.1027320E+00  0.3709203E-01  0.2305909E+01  0.2487653E-01 -0.2751321E-01
  0.3263390E+01 -0.1640620E+02 -0.1027320E+00  0.9090087E-01  0.1940737E+01  0.3286616E-01 -0.8475130E-01
  0.4855770E+01 -0.1600730E+02 -0.1027320E+00  0.1265400E+00  0.1882698E+01  0.3883124E-01 -0.1204347E+00
  0.6401380E+01 -0.1545430E+02 -0.1027320E+00  0.1474951E+00  0.1867532E+01  0.4312754E-01 -0.1410490E+00
  0.7885340E+01 -0.1475240E+02 -0.1027320E+00  0.1610523E+00  0.1864340E+01  0.4659984E-01 -0.1541632E+00
  0.9293360E+01 -0.1390850E+02 -0.1027320E+00  0.1689153E+00  0.1867916E+01  0.4945283E-01 -0.1615141E+00
  0.1061190E+02 -0.1293060E+02 -0.1027320E+00  0.1758651E+00  0.1871530E+01  0.5209501E-01 -0.1679721E+00
  0.1182820E+02 -0.1182820E+02 -0.1027320E+00  0.1808493E+00  0.1875827E+01  0.5431302E-01 -0.1725009E+00
  0.1293060E+02 -0.1061190E+02 -0.1027320E+00  0.1845695E+00  0.1880608E+01  0.5627145E-01 -0.1757823E+00
  0.1390850E+02 -0.9293360E+01 -0.1027320E+00  0.1882653E+00  0.1884382E+01  0.5807437E-01 -0.1790843E+00
  0.1475240E+02 -0.7885330E+01 -0.1027320E+00  0.1920025E+00  0.1887006E+01  0.5970629E-01 -0.1824832E+00
  0.1545430E+02 -0.6401380E+01 -0.1027320E+00  0.1936848E+00  0.1890951E+01  0.6095517E-01 -0.1838430E+00
  0.1600730E+02 -0.4855760E+01 -0.1027320E+00  0.1927695E+00  0.1897019E+01  0.6177627E-01 -0.1826028E+00
  0.1640620E+02 -0.3263390E+01 -0.1027320E+00  0.1915755E+00  0.1902173E+01  0.6232822E-01 -0.1811529E+00
  0.1664710E+02 -0.1639590E+01 -0.1027320E+00  0.1906375E+00  0.1905608E+01  0.6264181E-01 -0.1800519E+00
  0.1672760E+02  0.0000000E+00 -0.2310450E+00  0.1896880E+00  0.1906730E+01  0.6253084E-01 -0.1790850E+00
  0.1664710E+02  0.1639590E+01 -0.2310450E+00  0.1900317E+00  0.1905513E+01  0.6242577E-01 -0.1794855E+00
  0.1640620E+02  0.3263390E+01 -0.2310450E+00  0.1909297E+00  0.1902127E+01  0.6210977E-01 -0.1805450E+00
  0.1600730E+02  0.4855770E+01 -0.2310450E+00  0.1920669E+00  0.1897052E+01  0.6155713E-01 -0.1819352E+00
  0.1545430E+02  0.6401380E+01 -0.2310450E+00  0.1929223E+00  0.1891061E+01  0.6073543E-01 -0.1831126E+00
  0.1475240E+02  0.7885340E+01 -0.2310450E+00  0.1912644E+00  0.1887088E+01  0.5949163E-01 -0.1817768E+00
  0.1390850E+02  0.9293360E+01 -0.2310450E+00  0.1876092E+00  0.1884381E+01  0.5787189E-01 -0.1784602E+00
  0.1293060E+02  0.1061190E+02 -0.2310450E+00  0.1839595E+00  0.1880572E+01  0.5607907E-01 -0.1752034E+00
  0.1182820E+02  0.1182820E+02 -0.2310450E+00  0.1802423E+00  0.1875783E+01  0.5412323E-01 -0.1719243E+00
  0.1061190E+02  0.1293060E+02 -0.2310450E+00  0.1752655E+00  0.1871500E+01  0.5191224E-01 -0.1674011E+00
  0.9293360E+01  0.1390850E+02 -0.2310450E+00  0.1683903E+00  0.1867825E+01  0.4928447E-01 -0.1610165E+00
  0.7885330E+01  0.1475240E+02 -0.2310450E+00  0.1604954E+00  0.1864336E+01  0.4643804E-01 -0.1536303E+00
  0.6401380E+01  0.1545430E+02 -0.2310450E+00  0.1470394E+00  0.1867444E+01  0.4298199E-01 -0.1406170E+00
  0.4855770E+01  0.1600730E+02 -0.2310450E+00  0.1261811E+00  0.1882534E+01  0.3870143E-01 -0.1200994E+00
  0.3263390E+01  0.1640620E+02 -0.2310450E+00  0.9058285E-01  0.1940695E+01  0.3274763E-01 -0.8445618E-01
  0.1639590E+01  0.1664710E+02 -0.2310450E+00  0.3693612E-01  0.2306309E+01  0.2478294E-01 -0.2738764E-01
 -0.7311870E-06  0.1672760E+02 -0.2310450E+00  0.3663906E-01 -0.2060007E+01  0.1721777E-01  0.3234144E-01
 -0.1639590E+01  0.1664710E+02 -0.2310450E+00  0.9276912E-01 -0.1685891E+01  0.1065364E-01  0.9215536E-01
 -0.3263390E+01  0.1640620E+02 -0.2310450E+00  0.1495199E+00 -0.1603444E+01  0.4880550E-02  0.1494403E+00
 -0.4855770E+01  0.1600730E+02 -0.2310450E+00  0.1852854E+00 -0.1570794E+01 -0.4519497E-06  0.1852854E+00
 -0.6401380E+01  0.1545430E+02 -0.2310450E+00  0.2059943E+00 -0.1549433E+01 -0.4400446E-02  0.2059473E+00
 -0.7885340E+01  0.1475240E+02 -0.2310450E+00  0.2192307E+00 -0.1532456E+01 -0.8403305E-02  0.2190696E+00
 -0.9293360E+01  0.1390850E+02 -0.2310450E+00  0.2268586E+00 -0.1517955E+01 -0.1198188E-01  0.2265420E+00
 -0.1061190E+02  0.1293060E+02 -0.2310450E+00  0.2335011E+00 -0.1505230E+01 -0.1529878E-01  0.2329994E+00
 -0.1182820E+02  0.1182820E+02 -0.2310450E+00  0.2382900E+00 -0.1493591E+01 -0.1837901E-01  0.2375801E+00
 -0.1293060E+02  0.1061190E+02 -0.2310450E+00  0.2418297E+00 -0.1483366E+01 -0.2111627E-01  0.2409060E+00
 -0.1390850E+02  0.9293360E+01 -0.2310450E+00  0.2453346E+00 -0.1474743E+01 -0.2352902E-01  0.2442037E+00
 -0.1475240E+02  0.7885330E+01 -0.2310450E+00  0.2488744E+00 -0.1467712E+01 -0.2560970E-01  0.2475533E+00
 -0.1545430E+02  0.6401370E+01 -0.2310450E+00  0.2504035E+00 -0.1461640E+01 -0.2727890E-01  0.2489132E+00
 -0.1600730E+02  0.4855770E+01 -0.2310450E+00  0.2493844E+00 -0.1456306E+01 -0.2848975E-01  0.2477518E+00
 -0.1640620E+02  0.3263390E+01 -0.2310450E+00  0.2481135E+00 -0.1452253E+01 -0.2934337E-01  0.2463723E+00
 -0.1664710E+02  0.1639590E+01 -0.2310450E+00  0.2471288E+00 -0.1449698E+01 -0.2985387E-01  0.2453189E+00
 -0.1672760E+02 -0.1462370E-05 -0.2310450E+00  0.2467539E+00 -0.1448830E+01 -0.3002098E-01  0.2449209E+00
 -0.1664710E+02 -0.1639590E+01 -0.2310450E+00  0.2471290E+00 -0.1449696E+01 -0.2985429E-01  0.2453191E+00
 -0.1640620E+02 -0.3263400E+01 -0.2310450E+00  0.2481136E+00 -0.1452253E+01 -0.2934332E-01  0.2463724E+00
 -0.1600730E+02 -0.4855770E+01 -0.2310450E+00  0.2493845E+00 -0.1456307E+01 -0.2848957E-01  0.2477518E+00
 -0.1545430E+02 -0.6401380E+01 -0.2310450E+00  0.2504032E+00 -0.1461641E+01 -0.2727870E-01  0.2489129E+00
 -0.1475240E+02 -0.7885340E+01 -0.2310450E+00  0.2488742E+00 -0.1467711E+01 -0.2560983E-01  0.2475530E+00
 -0.1390850E+02 -0.9293360E+01 -0.2310450E+00  0.2453347E+00 -0.1474742E+01 -0.2352919E-01  0.2442038E+00
 -0.1293060E+02 -0.1061190E+02 -0.2310450E+00  0.2418298E+00 -0.1483367E+01 -0.2111611E-01  0.2409062E+00
 -0.1182820E+02 -0.1182820E+02 -0.2310450E+00  0.2382900E+00 -0.1493589E+01 -0.1837936E-01  0.2375801E+00
 -0.1061190E+02 -0.1293060E+02 -0.2310450E+00  0.2335014E+00 -0.1505230E+01 -0.1529880E-01  0.2329996E+00
 -0.9293350E+01 -0.1390850E+02 -0.2310450E+00  0.2268587E+00 -0.1517954E+01 -0.1198206E-01  0.2265421E+00
 -0.7885340E+01 -0.1475240E+02 -0.2310450E+00  0.2192311E+00 -0.1532456E+01 -0.8403383E-02  0.2190700E+00
 -0.6401370E+01 -0.1545430E+02 -0.2310450E+00  0.2059942E+00 -0.1549436E+01 -0.4399854E-02  0.2059472E+00
 -0.4855760E+01 -0.1600730E+02 -0.2310450E+00  0.1852857E+00 -0.1570797E+01  0.1378044E-06  0.1852857E+00
 -0.3263390E+01 -0.1640620E+02 -0.2310450E+00  0.1495198E+00 -0.1603440E+01  0.4879997E-02  0.1494401E+00
 -0.1639590E+01 -0.1664710E+02 -0.2310450E+00  0.9276942E-01 -0.1685897E+01  0.1065426E-01  0.9215559E-01
  0.1994750E-06 -0.1672760E+02 -0.2310450E+00  0.3663964E-01 -0.2060012E+01  0.1721819E-01  0.3234188E-01
  0.1639600E+01 -0.1664710E+02 -0.2310450E+00  0.3693656E-01  0.2306301E+01  0.2478300E-01 -0.2738817E-01
  0.3263390E+01 -0.1640620E+02 -0.2310450E+00  0.9058280E-01  0.1940691E+01  0.3274725E-01 -0.8445626E-01
  0.4855770E+01 -0.1600730E+02 -0.2310450E+00  0.1261803E+00  0.1882535E+01  0.3870129E-01 -0.1200986E+00
  0.6401380E+01 -0.1545430E+02 -0.2310450E+00  0.1470391E+00  0.1867445E+01  0.4298208E-01 -0.1406166E+00
  0.7885340E+01 -0.1475240E+02 -0.2310450E+00  0.1604947E+00  0.1864336E+01  0.4643794E-01 -0.1536296E+00
  0.9293360E+01 -0.1390850E+02 -0.2310450E+00  0.1683898E+00  0.1867829E+01  0.4928509E-01 -0.1610159E+00
  0.1061190E+02 -0.1293060E+02 -0.2310450E+00  0.1752655E+00  0.1871495E+01  0.5191148E-01 -0.1674013E+00
  0.1182820E+02 -0.1182820E+02 -0.2310450E+00  0.1802428E+00  0.1875782E+01  0.5412318E-01 -0.1719248E+00
  0.1293060E+02 -0.1061190E+02 -0.2310450E+00  0.1839590E+00  0.1880569E+01  0.5607852E-01 -0.1752031E+00
  0.1390850E+02 -0.9293360E+01 -0.2310450E+00  0.1876093E+00  0.1884380E+01  0.5787170E-01 -0.1784604E+00
  0.1475240E+02 -0.7885330E+01 -0.2310450E+00  0.1912643E+00  0.1887086E+01  0.5949130E-01 -0.1817769E+00
  0.1545430E+02 -0.6401380E+01 -0.2310450E+00  0.1929222E+00  0.1891061E+01  0.6073532E-01 -0.1831125E+00
  0.1600730E+02 -0.4855760E+01 -0.2310450E+00  0.1920668E+00  0.1897054E+01  0.6155748E-01 -0.1819350E+00
  0.1640620E+02 -0.3263390E+01 -0.2310450E+00  0.1909294E+00  0.1902127E+01  0.6210970E-01 -0.1805448E+00
  0.1664710E+02 -0.1639590E+01 -0.2310450E+00  0.1900313E+00  0.1905515E+01  0.6242599E-01 -0.1794851E+00
  0.1672760E+02  0.0000000E+00 -0.4105000E+00  0.1888783E+00  0.1906545E+01  0.6223082E-01 -0.1783321E+00
  0.1664710E+02  0.1639590E+01 -0.4105000E+00  0.1892018E+00  0.1905363E+01  0.6212630E-01 -0.1787111E+00
  0.1640620E+02  0.3263390E+01 -0.4105000E+00  0.1900435E+00  0.1902052E+01  0.6180795E-01 -0.1797118E+00
  0.1600730E+02  0.4855770E+01 -0.4105000E+00  0.1911002E+00  0.1897071E+01  0.6125081E-01 -0.1810182E+00
  0.1545430E+02  0.6401380E+01 -0.4105000E+00  0.1918716E+00  0.1891192E+01  0.6042852E-01 -0.1821073E+00
  0.1475240E+02  0.7885340E+01 -0.4105000E+00  0.1902488E+00  0.1887184E+01  0.5919315E-01 -0.1808059E+00
  0.1390850E+02  0.9293360E+01 -0.4105000E+00  0.1867094E+00  0.1884364E+01  0.5759142E-01 -0.1776053E+00
  0.1293060E+02  0.1061190E+02 -0.4105000E+00  0.1831208E+00  0.1880495E+01  0.5581008E-01 -0.1744089E+00
  0.1182820E+02  0.1182820E+02 -0.4105000E+00  0.1794091E+00  0.1875724E+01  0.5386296E-01 -0.1711327E+00
  0.1061190E+02  0.1293060E+02 -0.4105000E+00  0.1744386E+00  0.1871448E+01  0.5165873E-01 -0.1666139E+00
  0.9293360E+01  0.1390850E+02 -0.4105000E+00  0.1676619E+00  0.1867697E+01  0.4905086E-01 -0.1603263E+00
  0.7885330E+01  0.1475240E+02 -0.4105000E+00  0.1597172E+00  0.1864323E+01  0.4621097E-01 -0.1528860E+00
  0.6401380E+01  0.1545430E+02 -0.4105000E+00  0.1463991E+00  0.1867331E+01  0.4277898E-01 -0.1400095E+00
  0.4855770E+01  0.1600730E+02 -0.4105000E+00  0.1256526E+00  0.1882356E+01  0.3851802E-01 -0.1196033E+00
  0.3263390E+01  0.1640620E+02 -0.4105000E+00  0.9012913E-01  0.1940713E+01  0.3258509E-01 -0.8403257E-01
  0.1639590E+01  0.1664710E+02 -0.4105000E+00  0.3673423E-01  0.2306633E+01  0.2465630E-01 -0.2722995E-01
 -0.7311870E-06  0.1672760E+02 -0.4105000E+00  0.3645248E-01 -0.2059990E+01  0.1712955E-01  0.3217705E-01
 -0.1639590E+01  0.1664710E+02 -0.4105000E+00  0.9227918E-01 -0.1685940E+01  0.1060191E-01  0.9166814E-01
 -0.3263390E+01  0.1640620E+02 -0.4105000E+00  0.1487659E+00 -0.1603466E+01  0.4859297E-02  0.1486865E+00
 -0.4855770E+01  0.1600730E+02 -0.4105000E+00  0.1844588E+00 -0.1570784E+01 -0.2335057E-05  0.1844588E+00
 -0.6401380E+01  0.1545430E+02 -0.4105000E+00  0.2050550E+00 -0.1549439E+01 -0.4379032E-02  0.2050083E+00
 -0.7885340E+01  0.1475240E+02 -0.4105000E+00  0.2181540E+00 -0.1532474E+01 -0.8358138E-02  0.2179938E+00
 -0.9293360E+01  0.1390850E+02 -0.4105000E+00  0.2258363E+00 -0.1517970E+01 -0.1192450E-01  0.2255212E+00
 -0.1061190E+02  0.1293060E+02 -0.4105000E+00  0.2323791E+00 -0.1505231E+01 -0.1522519E-01  0.2318798E+00
 -0.1182820E+02  0.1182820E+02 -0.4105000E+00  0.2371617E+00 -0.1493611E+01 -0.1828736E-01  0.2364556E+00