 VARIABLES="X" "Y" "Z" "abs(eta) (m)" "angle(phi) (rad)" "PRE1" "PRE2"
ZONE N=   3200 ,E =    3136 ,F=FEPOINT,ET=QUADRILATERAL
  0.1672760E+02  0.0000000E+00  0.0000000E+00  0.2111206E+00  0.2026659E+01  0.9294308E-01 -0.1895613E+00
  0.1664710E+02  0.1639590E+01  0.0000000E+00  0.2081536E+00  0.2020977E+01  0.9057346E-01 -0.1874150E+00
  0.1640620E+02  0.3263390E+01  0.0000000E+00  0.2040941E+00  0.2015383E+01  0.8777782E-01 -0.1842538E+00
  0.1600730E+02  0.4855770E+01  0.0000000E+00  0.1989594E+00  0.2009962E+01  0.8459437E-01 -0.1800795E+00
  0.1545430E+02  0.6401380E+01  0.0000000E+00  0.1937203E+00  0.2002153E+01  0.8099517E-01 -0.1759753E+00
  0.1475240E+02  0.7885340E+01  0.0000000E+00  0.1885826E+00  0.1991174E+01  0.7696159E-01 -0.1721636E+00
  0.1390850E+02  0.9293360E+01  0.0000000E+00  0.1842317E+00  0.1975413E+01  0.7252580E-01 -0.1693557E+00
  0.1293060E+02  0.1061190E+02  0.0000000E+00  0.1797709E+00  0.1956885E+01  0.6769595E-01 -0.1665378E+00
  0.1182820E+02  0.1182820E+02  0.0000000E+00  0.1710103E+00  0.1946145E+01  0.6269184E-01 -0.1591045E+00
  0.1061190E+02  0.1293060E+02  0.0000000E+00  0.1617416E+00  0.1933175E+01  0.5733737E-01 -0.1512375E+00
  0.9293360E+01  0.1390850E+02  0.0000000E+00  0.1507688E+00  0.1921114E+01  0.5174330E-01 -0.1416117E+00
  0.7885330E+01  0.1475240E+02  0.0000000E+00  0.1345148E+00  0.1920506E+01  0.4608817E-01 -0.1263729E+00
  0.6401380E+01  0.1545430E+02  0.0000000E+00  0.1153243E+00  0.1927377E+01  0.4025645E-01 -0.1080700E+00
  0.4855770E+01  0.1600730E+02  0.0000000E+00  0.8671226E-01  0.1982971E+01  0.3473720E-01 -0.7945026E-01
  0.3263390E+01  0.1640620E+02  0.0000000E+00  0.4265743E-01  0.2357503E+01  0.3020282E-01 -0.3012385E-01
  0.1639590E+01  0.1664710E+02  0.0000000E+00  0.4917097E-01 -0.2148866E+01  0.2686742E-01  0.4118163E-01
 -0.7311870E-06  0.1672760E+02  0.0000000E+00  0.1100813E+00 -0.1778984E+01  0.2275242E-01  0.1077043E+00
 -0.1639590E+01  0.1664710E+02  0.0000000E+00  0.1657016E+00 -0.1672458E+01  0.1681658E-01  0.1648461E+00
 -0.3263390E+01  0.1640620E+02  0.0000000E+00  0.2129500E+00 -0.1611665E+01  0.8700646E-02  0.2127721E+00
 -0.4855770E+01  0.1600730E+02  0.0000000E+00  0.2418961E+00 -0.1568128E+01 -0.6455762E-03  0.2418953E+00
 -0.6401380E+01  0.1545430E+02  0.0000000E+00  0.2575004E+00 -0.1532680E+01 -0.9812493E-02  0.2573134E+00
 -0.7885340E+01  0.1475240E+02  0.0000000E+00  0.2664683E+00 -0.1501370E+01 -0.1848515E-01  0.2658264E+00
 -0.9293360E+01  0.1390850E+02  0.0000000E+00  0.2748138E+00 -0.1474805E+01 -0.2633916E-01  0.2735487E+00
 -0.1061190E+02  0.1293060E+02  0.0000000E+00  0.2792599E+00 -0.1450099E+01 -0.3362401E-01  0.2772283E+00
 -0.1182820E+02  0.1182820E+02  0.0000000E+00  0.2826235E+00 -0.1428014E+01 -0.4021656E-01  0.2797475E+00
 -0.1293060E+02  0.1061190E+02  0.0000000E+00  0.2856556E+00 -0.1408775E+01 -0.4608007E-01  0.2819144E+00
 -0.1390850E+02  0.9293360E+01  0.0000000E+00  0.2850378E+00 -0.1389574E+01 -0.5137298E-01  0.2803700E+00
 -0.1475240E+02  0.7885330E+01  0.0000000E+00  0.2850806E+00 -0.1373198E+01 -0.5596564E-01  0.2795332E+00
 -0.1545430E+02  0.6401370E+01  0.0000000E+00  0.2863074E+00 -0.1360029E+01 -0.5989855E-01  0.2799716E+00
 -0.1600730E+02  0.4855770E+01  0.0000000E+00  0.2876310E+00 -0.1349423E+01 -0.6315500E-01  0.2806119E+00
 -0.1640620E+02  0.3263390E+01  0.0000000E+00  0.2888603E+00 -0.1341272E+01 -0.6571972E-01  0.2812849E+00
 -0.1664710E+02  0.1639590E+01  0.0000000E+00  0.2891560E+00 -0.1334875E+01 -0.6758703E-01  0.2811462E+00
 -0.1672760E+02 -0.1462370E-05  0.0000000E+00  0.2883682E+00 -0.1330107E+01 -0.6873883E-01  0.2800557E+00
 -0.1664710E+02 -0.1639590E+01  0.0000000E+00  0.2863271E+00 -0.1326920E+01 -0.6913818E-01  0.2778545E+00
 -0.1640620E+02 -0.3263400E+01  0.0000000E+00  0.2831042E+00 -0.1325448E+01 -0.6876446E-01  0.2746260E+00
 -0.1600730E+02 -0.4855770E+01  0.0000000E+00  0.2786973E+00 -0.1325746E+01 -0.6761345E-01  0.2703712E+00
 -0.1545430E+02 -0.6401380E+01  0.0000000E+00  0.2742268E+00 -0.1328010E+01 -0.6592625E-01  0.2661843E+00
 -0.1475240E+02 -0.7885340E+01  0.0000000E+00  0.2699395E+00 -0.1332219E+01 -0.6379221E-01  0.2622935E+00
 -0.1390850E+02 -0.9293360E+01  0.0000000E+00  0.2665755E+00 -0.1338442E+01 -0.6138412E-01  0.2594118E+00
 -0.1293060E+02 -0.1061190E+02  0.0000000E+00  0.2631212E+00 -0.1346321E+01 -0.5856934E-01  0.2565198E+00
 -0.1182820E+02 -0.1182820E+02  0.0000000E+00  0.2548368E+00 -0.1356246E+01 -0.5425693E-01  0.2489939E+00
 -0.1061190E+02 -0.1293060E+02  0.0000000E+00  0.2460741E+00 -0.1367952E+01 -0.4957319E-01  0.2410290E+00
 -0.9293350E+01 -0.1390850E+02  0.0000000E+00  0.2354798E+00 -0.1381896E+01 -0.4421803E-01  0.2312909E+00
 -0.7885340E+01 -0.1475240E+02  0.0000000E+00  0.2191132E+00 -0.1399613E+01 -0.3732570E-01  0.2159106E+00
 -0.6401370E+01 -0.1545430E+02  0.0000000E+00  0.1996557E+00 -0.1421251E+01 -0.2974636E-01  0.1974274E+00
 -0.4855760E+01 -0.1600730E+02  0.0000000E+00  0.1696959E+00 -0.1455366E+01 -0.1954457E-01  0.1685666E+00
 -0.3263390E+01 -0.1640620E+02  0.0000000E+00  0.1189629E+00 -0.1536164E+01 -0.4119177E-02  0.1188916E+00
 -0.1639590E+01 -0.1664710E+02  0.0000000E+00  0.5028825E-01 -0.1921986E+01  0.1729990E-01  0.4721886E-01
  0.1994750E-06 -0.1672760E+02  0.0000000E+00  0.4282490E-01  0.2671474E+01  0.3817901E-01 -0.1939935E-01
  0.1639600E+01 -0.1664710E+02  0.0000000E+00  0.9510513E-01  0.2210521E+01  0.5677533E-01 -0.7629907E-01
  0.3263390E+01 -0.1640620E+02  0.0000000E+00  0.1432444E+00  0.2099005E+01  0.7219325E-01 -0.1237218E+00
  0.4855770E+01 -0.1600730E+02  0.0000000E+00  0.1727886E+00  0.2061618E+01  0.8144408E-01 -0.1523901E+00
  0.6401380E+01 -0.1545430E+02  0.0000000E+00  0.1885704E+00  0.2048198E+01  0.8664309E-01 -0.1674867E+00
  0.7885340E+01 -0.1475240E+02  0.0000000E+00  0.1974242E+00  0.2043662E+01  0.8991481E-01 -0.1757602E+00
  0.9293360E+01 -0.1390850E+02  0.0000000E+00  0.2055472E+00  0.2040318E+01  0.9300180E-01 -0.1833039E+00
  0.1061190E+02 -0.1293060E+02  0.0000000E+00  0.2095730E+00  0.2040755E+01  0.9490500E-01 -0.1868525E+00
  0.1182820E+02 -0.1182820E+02  0.0000000E+00  0.2124220E+00  0.2041991E+01  0.9642912E-01 -0.1892737E+00
  0.1293060E+02 -0.1061190E+02  0.0000000E+00  0.2149104E+00  0.2043228E+01  0.9779559E-01 -0.1913701E+00
  0.1390850E+02 -0.9293360E+01  0.0000000E+00  0.2135681E+00  0.2047188E+01  0.9793706E-01 -0.1897885E+00
  0.1475240E+02 -0.7885330E+01  0.0000000E+00  0.2127711E+00  0.2048628E+01  0.9784380E-01 -0.1889394E+00
  0.1545430E+02 -0.6401380E+01  0.0000000E+00  0.2130539E+00  0.2046710E+01  0.9761076E-01 -0.1893782E+00
  0.1600730E+02 -0.4855760E+01  0.0000000E+00  0.2133843E+00  0.2043082E+01  0.9707348E-01 -0.1900252E+00
  0.1640620E+02 -0.3263390E+01  0.0000000E+00  0.2136067E+00  0.2037996E+01  0.9620582E-01 -0.1907151E+00
  0.1664710E+02 -0.1639590E+01  0.0000000E+00  0.2128936E+00  0.2032451E+01  0.9482923E-01 -0.1906072E+00
  0.1672760E+02  0.0000000E+00 -0.2568960E-01  0.2109291E+00  0.2026663E+01  0.9285951E-01 -0.1893890E+00
  0.1664710E+02  0.1639590E+01 -0.2568960E-01  0.2079661E+00  0.2020980E+01  0.9049253E-01 -0.1872458E+00
  0.1640620E+02  0.3263390E+01 -0.2568960E-01  0.2039144E+00  0.2015368E+01  0.8769780E-01 -0.1840928E+00
  0.1600730E+02  0.4855770E+01 -0.2568960E-01  0.1987917E+00  0.2009933E+01  0.8451797E-01 -0.1799301E+00
  0.1545430E+02  0.6401380E+01 -0.2568960E-01  0.1935609E+00  0.2002120E+01  0.8092268E-01 -0.1758333E+00
  0.1475240E+02  0.7885340E+01 -0.2568960E-01  0.1884269E+00  0.1991145E+01  0.7689305E-01 -0.1720237E+00
  0.1390850E+02  0.9293360E+01 -0.2568960E-01  0.1840701E+00  0.1975409E+01  0.7246162E-01 -0.1692074E+00
  0.1293060E+02  0.1061190E+02 -0.2568960E-01  0.1796006E+00  0.1956917E+01  0.6763714E-01 -0.1663779E+00
  0.1182820E+02  0.1182820E+02 -0.2568960E-01  0.1708618E+00  0.1946145E+01  0.6263740E-01 -0.1589664E+00
  0.1061190E+02  0.1293060E+02 -0.2568960E-01  0.1616008E+00  0.1933164E+01  0.5728579E-01 -0.1511065E+00
  0.9293360E+01  0.1390850E+02 -0.2568960E-01  0.1506316E+00  0.1921141E+01  0.5169998E-01 -0.1414815E+00
  0.7885330E+01  0.1475240E+02 -0.2568960E-01  0.1344103E+00  0.1920479E+01  0.4604892E-01 -0.1262760E+00
  0.6401380E+01  0.1545430E+02 -0.2568960E-01  0.1152279E+00  0.1927371E+01  0.4022219E-01 -0.1079798E+00
  0.4855770E+01  0.1600730E+02 -0.2568960E-01  0.8663576E-01  0.1983012E+01  0.3470981E-01 -0.7937874E-01
  0.3263390E+01  0.1640620E+02 -0.2568960E-01  0.4262872E-01  0.2357345E+01  0.3017773E-01 -0.3010835E-01
  0.1639590E+01  0.1664710E+02 -0.2568960E-01  0.4911519E-01 -0.2149132E+01  0.2684787E-01  0.4112777E-01
 -0.7311870E-06  0.1672760E+02 -0.2568960E-01  0.1099837E+00 -0.1779011E+01  0.2273517E-01  0.1076083E+00
 -0.1639590E+01  0.1664710E+02 -0.2568960E-01  0.1655727E+00 -0.1672475E+01  0.1680623E-01  0.1647175E+00
 -0.3263390E+01  0.1640620E+02 -0.2568960E-01  0.2127702E+00 -0.1611688E+01  0.8698041E-02  0.2125924E+00
 -0.4855770E+01  0.1600730E+02 -0.2568960E-01  0.2416796E+00 -0.1568142E+01 -0.6415495E-03  0.2416787E+00
 -0.6401380E+01  0.1545430E+02 -0.2568960E-01  0.2572721E+00 -0.1532695E+01 -0.9800079E-02  0.2570854E+00
 -0.7885340E+01  0.1475240E+02 -0.2568960E-01  0.2662438E+00 -0.1501391E+01 -0.1846381E-01  0.2656028E+00
 -0.9293360E+01  0.1390850E+02 -0.2568960E-01  0.2745629E+00 -0.1474817E+01 -0.2631201E-01  0.2732992E+00
 -0.1061190E+02  0.1293060E+02 -0.2568960E-01  0.2790104E+00 -0.1450111E+01 -0.3359091E-01  0.2769809E+00
 -0.1182820E+02  0.1182820E+02 -0.2568960E-01  0.2823702E+00 -0.1428024E+01 -0.4017776E-01  0.2794972E+00
 -0.1293060E+02  0.1061190E+02 -0.2568960E-01  0.2853886E+00 -0.1408778E+01 -0.4603616E-01  0.2816511E+00
 -0.1390850E+02  0.9293360E+01 -0.2568960E-01  0.2847856E+00 -0.1389587E+01 -0.5132392E-01  0.2801227E+00
 -0.1475240E+02  0.7885330E+01 -0.2568960E-01  0.2848377E+00 -0.1373214E+01 -0.5591337E-01  0.2792959E+00
 -0.1545430E+02  0.6401370E+01 -0.2568960E-01  0.2860630E+00 -0.1360048E+01 -0.5984207E-01  0.2797338E+00
 -0.1600730E+02  0.4855770E+01 -0.2568960E-01  0.2873811E+00 -0.1349443E+01 -0.6309462E-01  0.2803694E+00
 -0.1640620E+02  0.3263390E+01 -0.2568960E-01  0.2886030E+00 -0.1341283E+01 -0.6565810E-01  0.2810351E+00
 -0.1664710E+02  0.1639590E+01 -0.2568960E-01  0.2888936E+00 -0.1334887E+01 -0.6752225E-01  0.2808919E+00
 -0.1672760E+02 -0.1462370E-05 -0.2568960E-01  0.2881055E+00 -0.1330116E+01 -0.6867385E-01  0.2798011E+00
 -0.1664710E+02 -0.1639590E+01 -0.2568960E-01  0.2860678E+00 -0.1326928E+01 -0.6907348E-01  0.2776034E+00
 -0.1640620E+02 -0.3263400E+01 -0.2568960E-01  0.2828529E+00 -0.1325451E+01 -0.6870247E-01  0.2743825E+00
 -0.1600730E+02 -0.4855770E+01 -0.2568960E-01  0.2784578E+00 -0.1325759E+01 -0.6755169E-01  0.2701398E+00
 -0.1545430E+02 -0.6401380E+01 -0.2568960E-01  0.2739956E+00 -0.1328019E+01 -0.6586833E-01  0.2659604E+00
 -0.1475240E+02 -0.7885340E+01 -0.2568960E-01  0.2697112E+00 -0.1332228E+01 -0.6373585E-01  0.2620723E+00
 -0.1390850E+02 -0.9293360E+01 -0.2568960E-01  0.2663385E+00 -0.1338446E+01 -0.6132847E-01  0.2591814E+00
 -0.1293060E+02 -0.1061190E+02 -0.2568960E-01  0.2628733E+00 -0.1346329E+01 -0.5851208E-01  0.2562786E+00
 -0.1182820E+02 -0.1182820E+02 -0.2568960E-01  0.2546118E+00 -0.1356254E+01 -0.5420680E-01  0.2487745E+00
 -0.1061190E+02 -0.1293060E+02 -0.2568960E-01  0.2458564E+00 -0.1367962E+01 -0.4952690E-01  0.2408163E+00
 -0.9293350E+01 -0.1390850E+02 -0.2568960E-01  0.2352620E+00 -0.1381908E+01 -0.4417447E-01  0.2310775E+00
 -0.7885340E+01 -0.1475240E+02 -0.2568960E-01  0.2189317E+00 -0.1399620E+01 -0.3729321E-01  0.2157321E+00
 -0.6401370E+01 -0.1545430E+02 -0.2568960E-01  0.1994811E+00 -0.1421266E+01 -0.2971748E-01  0.1972552E+00
 -0.4855760E+01 -0.1600730E+02 -0.2568960E-01  0.1695424E+00 -0.1455384E+01 -0.1952385E-01  0.1684145E+00
 -0.3263390E+01 -0.1640620E+02 -0.2568960E-01  0.1188665E+00 -0.1536171E+01 -0.4114951E-02  0.1187953E+00
 -0.1639590E+01 -0.1664710E+02 -0.2568960E-01  0.5025887E-01 -0.1921863E+01  0.1728399E-01  0.4719341E-01
  0.1994750E-06 -0.1672760E+02 -0.2568960E-01  0.4278979E-01  0.2671445E+01  0.3814715E-01 -0.1938455E-01
  0.1639600E+01 -0.1664710E+02 -0.2568960E-01  0.9504195E-01  0.2210476E+01  0.5673422E-01 -0.7625090E-01
  0.3263390E+01 -0.1640620E+02 -0.2568960E-01  0.1431299E+00  0.2098998E+01  0.7213476E-01 -0.1236234E+00
  0.4855770E+01 -0.1600730E+02 -0.2568960E-01  0.1726364E+00  0.2061630E+01  0.8137414E-01 -0.1522550E+00
  0.6401380E+01 -0.1545430E+02 -0.2568960E-01  0.1884066E+00  0.2048197E+01  0.8656747E-01 -0.1673413E+00
  0.7885340E+01 -0.1475240E+02 -0.2568960E-01  0.1972648E+00  0.2043658E+01  0.8984140E-01 -0.1756187E+00
  0.9293360E+01 -0.1390850E+02 -0.2568960E-01  0.2053600E+00  0.2040323E+01  0.9291810E-01 -0.1831364E+00
  0.1061190E+02 -0.1293060E+02 -0.2568960E-01  0.2093887E+00  0.2040768E+01  0.9482405E-01 -0.1866870E+00
  0.1182820E+02 -0.1182820E+02 -0.2568960E-01  0.2122341E+00  0.2041998E+01  0.9634515E-01 -0.1891056E+00
  0.1293060E+02 -0.1061190E+02 -0.2568960E-01  0.2147081E+00  0.2043234E+01  0.9770480E-01 -0.1911893E+00
  0.1390850E+02 -0.9293360E+01 -0.2568960E-01  0.2133820E+00  0.2047188E+01  0.9785175E-01 -0.1896231E+00
  0.1475240E+02 -0.7885330E+01 -0.2568960E-01  0.2125951E+00  0.2048615E+01  0.9776042E-01 -0.1887844E+00
  0.1545430E+02 -0.6401380E+01 -0.2568960E-01  0.2128769E+00  0.2046693E+01  0.9752657E-01 -0.1892225E+00
  0.1600730E+02 -0.4855760E+01 -0.2568960E-01  0.2132039E+00  0.2043077E+01  0.9699041E-01 -0.1898651E+00
  0.1640620E+02 -0.3263390E+01 -0.2568960E-01  0.2134193E+00  0.2037993E+01  0.9612089E-01 -0.1905481E+00
  0.1664710E+02 -0.1639590E+01 -0.2568960E-01  0.2127024E+00  0.2032448E+01  0.9474341E-01 -0.1904363E+00
  0.1672760E+02  0.0000000E+00 -0.1027320E+00  0.2103732E+00  0.2026649E+01  0.9261212E-01 -0.1888912E+00
  0.1664710E+02  0.1639590E+01 -0.1027320E+00  0.2074234E+00  0.2020952E+01  0.9025101E-01 -0.1867598E+00
  0.1640620E+02  0.3263390E+01 -0.1027320E+00  0.2033953E+00  0.2015303E+01  0.8746249E-01 -0.1836299E+00
  0.1600730E+02  0.4855770E+01 -0.1027320E+00  0.1983074E+00  0.2009813E+01  0.8429045E-01 -0.1795019E+00
  0.1545430E+02  0.6401380E+01 -0.1027320E+00  0.1931013E+00  0.2001974E+01  0.8070497E-01 -0.1754275E+00
  0.1475240E+02  0.7885340E+01 -0.1027320E+00  0.1879778E+00  0.1991015E+01  0.7668747E-01 -0.1716237E+00
  0.1390850E+02  0.9293360E+01 -0.1027320E+00  0.1836000E+00  0.1975362E+01  0.7226864E-01 -0.1687786E+00
  0.1293060E+02  0.1061190E+02 -0.1027320E+00  0.1791025E+00  0.1956970E+01  0.6745830E-01 -0.1659129E+00
  0.1182820E+02  0.1182820E+02 -0.1027320E+00  0.1704283E+00  0.1946097E+01  0.6247083E-01 -0.1585661E+00
  0.1061190E+02  0.1293060E+02 -0.1027320E+00  0.1611885E+00  0.1933140E+01  0.5713589E-01 -0.1507223E+00
  0.9293360E+01  0.1390850E+02 -0.1027320E+00  0.1502227E+00  0.1921190E+01  0.5156653E-01 -0.1410948E+00
  0.7885330E+01  0.1475240E+02 -0.1027320E+00  0.1340991E+00  0.1920375E+01  0.4592915E-01 -0.1259884E+00
  0.6401380E+01  0.1545430E+02 -0.1027320E+00  0.1149405E+00  0.1927366E+01  0.4012132E-01 -0.1077108E+00
  0.4855770E+01  0.1600730E+02 -0.1027320E+00  0.8640359E-01  0.1983120E+01  0.3462529E-01 -0.7916229E-01
  0.3263390E+01  0.1640620E+02 -0.1027320E+00  0.4255589E-01  0.2356628E+01  0.3010459E-01 -0.3007852E-01
  0.1639590E+01  0.1664710E+02 -0.1027320E+00  0.4894961E-01 -0.2149786E+01  0.2678420E-01  0.4097158E-01
 -0.7311870E-06  0.1672760E+02 -0.1027320E+00  0.1096976E+00 -0.1779123E+01  0.2268798E-01  0.1073257E+00
 -0.1639590E+01  0.1664710E+02 -0.1027320E+00  0.1651848E+00 -0.1672545E+01  0.1677838E-01  0.1643305E+00
 -0.3263390E+01  0.1640620E+02 -0.1027320E+00  0.2122461E+00 -0.1611748E+01  0.8689287E-02  0.2120681E+00
 -0.4855770E+01  0.1600730E+02 -0.1027320E+00  0.2410315E+00 -0.1568191E+01 -0.6280107E-03  0.2410307E+00
 -0.6401380E+01  0.1545430E+02 -0.1027320E+00  0.2565939E+00 -0.1532730E+01 -0.9765347E-02  0.2564080E+00
 -0.7885340E+01  0.1475240E+02 -0.1027320E+00  0.2655788E+00 -0.1501447E+01 -0.1840306E-01  0.2649404E+00
 -0.9293360E+01  0.1390850E+02 -0.1027320E+00  0.2738205E+00 -0.1474845E+01 -0.2623316E-01  0.2725610E+00
 -0.1061190E+02  0.1293060E+02 -0.1027320E+00  0.2782752E+00 -0.1450149E+01 -0.3349181E-01  0.2762524E+00
 -0.1182820E+02  0.1182820E+02 -0.1027320E+00  0.2816266E+00 -0.1428058E+01 -0.4006247E-01  0.2787625E+00
 -0.1293060E+02  0.1061190E+02 -0.1027320E+00  0.2846064E+00 -0.1408785E+01 -0.4590802E-01  0.2808794E+00
 -0.1390850E+02  0.9293360E+01 -0.1027320E+00  0.2840489E+00 -0.1389624E+01 -0.5118086E-01  0.2793999E+00
 -0.1475240E+02  0.7885330E+01 -0.1027320E+00  0.2841301E+00 -0.1373271E+01 -0.5575857E-01  0.2786052E+00
 -0.1545430E+02  0.6401370E+01 -0.1027320E+00  0.2853513E+00 -0.1360109E+01 -0.5967623E-01  0.2790414E+00
 -0.1600730E+02  0.4855770E+01 -0.1027320E+00  0.2866544E+00 -0.1349498E+01 -0.6291970E-01  0.2796638E+00
 -0.1640620E+02  0.3263390E+01 -0.1027320E+00  0.2878531E+00 -0.1341329E+01 -0.6547465E-01  0.2803078E+00
 -0.1664710E+02  0.1639590E+01 -0.1027320E+00  0.2881294E+00 -0.1334919E+01 -0.6733458E-01  0.2801510E+00
 -0.1672760E+02 -0.1462370E-05 -0.1027320E+00  0.2873387E+00 -0.1330145E+01 -0.6848279E-01  0.2790585E+00
 -0.1664710E+02 -0.1639590E+01 -0.1027320E+00  0.2853119E+00 -0.1326957E+01 -0.6888277E-01  0.2768719E+00
 -0.1640620E+02 -0.3263400E+01 -0.1027320E+00  0.2821209E+00 -0.1325482E+01 -0.6851614E-01  0.2736745E+00
 -0.1600730E+02 -0.4855770E+01 -0.1027320E+00  0.2777609E+00 -0.1325787E+01 -0.6737529E-01  0.2694656E+00
 -0.1545430E+02 -0.6401380E+01 -0.1027320E+00  0.2733227E+00 -0.1328050E+01 -0.6569827E-01  0.2653093E+00
 -0.1475240E+02 -0.7885340E+01 -0.1027320E+00  0.2690453E+00 -0.1332251E+01 -0.6357252E-01  0.2614267E+00
 -0.1390850E+02 -0.9293360E+01 -0.1027320E+00  0.2656454E+00 -0.1338474E+01 -0.6116177E-01  0.2585086E+00
 -0.1293060E+02 -0.1061190E+02 -0.1027320E+00  0.2621437E+00 -0.1346357E+01 -0.5834259E-01  0.2555689E+00
 -0.1182820E+02 -0.1182820E+02 -0.1027320E+00  0.2539499E+00 -0.1356279E+01 -0.5405970E-01  0.2481291E+00
 -0.1061190E+02 -0.1293060E+02 -0.1027320E+00  0.2452137E+00 -0.1367990E+01 -0.4939068E-01  0.2401881E+00
 -0.9293350E+01 -0.1390850E+02 -0.1027320E+00  0.2346189E+00 -0.1381943E+01 -0.4404557E-01  0.2304474E+00
 -0.7885340E+01 -0.1475240E+02 -0.1027320E+00  0.2183927E+00 -0.1399631E+01 -0.3719902E-01  0.2152013E+00
 -0.6401370E+01 -0.1545430E+02 -0.1027320E+00  0.1989628E+00 -0.1421300E+01 -0.2963359E-01  0.1967436E+00
 -0.4855760E+01 -0.1600730E+02 -0.1027320E+00  0.1690785E+00 -0.1455453E+01 -0.1945895E-01  0.1679550E+00
 -0.3263390E+01 -0.1640620E+02 -0.1027320E+00  0.1185943E+00 -0.1536160E+01 -0.4106878E-02  0.1185231E+00
 -0.1639590E+01 -0.1664710E+02 -0.1027320E+00  0.5016138E-01 -0.1921503E+01  0.1723351E-01  0.4710807E-01
  0.1994750E-06 -0.1672760E+02 -0.1027320E+00  0.4269150E-01  0.2671376E+01  0.3805819E-01 -0.1934265E-01
  0.1639600E+01 -0.1664710E+02 -0.1027320E+00  0.9484923E-01  0.2210311E+01  0.5660659E-01 -0.7610565E-01
  0.3263390E+01 -0.1640620E+02 -0.1027320E+00  0.1428000E+00  0.2098958E+01  0.7196349E-01 -0.1233414E+00
  0.4855770E+01 -0.1600730E+02 -0.1027320E+00  0.1721797E+00  0.2061651E+01  0.8116196E-01 -0.1518506E+00
  0.6401380E+01 -0.1545430E+02 -0.1027320E+00  0.1879193E+00  0.2048204E+01  0.8634488E-01 -0.1669079E+00
  0.7885340E+01 -0.1475240E+02 -0.1027320E+00  0.1967915E+00  0.2043615E+01  0.8961830E-01 -0.1752012E+00
  0.9293360E+01 -0.1390850E+02 -0.1027320E+00  0.2048088E+00  0.2040334E+01  0.9267069E-01 -0.1826439E+00
  0.1061190E+02 -0.1293060E+02 -0.1027320E+00  0.2088459E+00  0.2040757E+01  0.9457617E-01 -0.1862041E+00
  0.1182820E+02 -0.1182820E+02 -0.1027320E+00  0.2116837E+00  0.2041978E+01  0.9609157E-01 -0.1886171E+00
  0.1293060E+02 -0.1061190E+02 -0.1027320E+00  0.2141190E+00  0.2043242E+01  0.9743811E-01 -0.1906640E+00
  0.1390850E+02 -0.9293360E+01 -0.1027320E+00  0.2128389E+00  0.2047129E+01  0.9759153E-01 -0.1891462E+00
  0.1475240E+02 -0.7885330E+01 -0.1027320E+00  0.2120850E+00  0.2048531E+01  0.9751000E-01 -0.1883397E+00
  0.1545430E+02 -0.6401380E+01 -0.1027320E+00  0.2123669E+00  0.2046624E+01  0.9727989E-01 -0.1887759E+00
  0.1600730E+02 -0.4855760E+01 -0.1027320E+00  0.2126806E+00  0.2043013E+01  0.9674017E-01 -0.1894053E+00
  0.1640620E+02 -0.3263390E+01 -0.1027320E+00  0.2128759E+00  0.2037956E+01  0.9586921E-01 -0.1900664E+00
  0.1664710E+02 -0.1639590E+01 -0.1027320E+00  0.2121470E+00  0.2032426E+01  0.9449200E-01 -0.1899411E+00
  0.1672760E+02  0.0000000E+00 -0.2310450E+00  0.2094681E+00  0.2026586E+01  0.9220194E-01 -0.1880843E+00
  0.1664710E+02  0.1639590E+01 -0.2310450E+00  0.2065393E+00  0.2020865E+01  0.8985033E-01 -0.1859715E+00
  0.1640620E+02  0.3263390E+01 -0.2310450E+00  0.2025494E+00  0.2015162E+01  0.8707299E-01 -0.1828785E+00
  0.1600730E+02  0.4855770E+01 -0.2310450E+00  0.1975183E+00  0.2009596E+01  0.8391619E-01 -0.1788059E+00
  0.1545430E+02  0.6401380E+01 -0.2310450E+00  0.1923523E+00  0.2001710E+01  0.8034574E-01 -0.1747684E+00
  0.1475240E+02  0.7885340E+01 -0.2310450E+00  0.1872441E+00  0.1990775E+01  0.7634702E-01 -0.1709722E+00
  0.1390850E+02  0.9293360E+01 -0.2310450E+00  0.1828333E+00  0.1975259E+01  0.7194948E-01 -0.1680811E+00
  0.1293060E+02  0.1061190E+02 -0.2310450E+00  0.1782882E+00  0.1957038E+01  0.6716294E-01 -0.1651539E+00
  0.1182820E+02  0.1182820E+02 -0.2310450E+00  0.1697169E+00  0.1946005E+01  0.6219563E-01 -0.1579099E+00
  0.1061190E+02  0.1293060E+02 -0.2310450E+00  0.1605130E+00  0.1933067E+01  0.5688556E-01 -0.1500948E+00
  0.9293360E+01  0.1390850E+02 -0.2310450E+00  0.1495524E+00  0.1921237E+01  0.5134306E-01 -0.1404629E+00
  0.7885330E+01  0.1475240E+02 -0.2310450E+00  0.1335928E+00  0.1920146E+01  0.4572710E-01 -0.1255231E+00
  0.6401380E+01  0.1545430E+02 -0.2310450E+00  0.1144705E+00  0.1927309E+01  0.3995119E-01 -0.1072725E+00
  0.4855770E+01  0.1600730E+02 -0.2310450E+00  0.8603075E-01  0.1983203E+01  0.3448244E-01 -0.7881784E-01
  0.3263390E+01  0.1640620E+02 -0.2310450E+00  0.4243147E-01  0.2355350E+01  0.2997822E-01 -0.3002892E-01
  0.1639590E+01  0.1664710E+02 -0.2310450E+00  0.4865592E-01 -0.2151021E+01  0.2667374E-01  0.4069287E-01
 -0.7311870E-06  0.1672760E+02 -0.2310450E+00  0.1092154E+00 -0.1779245E+01  0.2260132E-01  0.1068512E+00
 -0.1639590E+01  0.1664710E+02 -0.2310450E+00  0.1645494E+00 -0.1672597E+01  0.1672238E-01  0.1636974E+00
 -0.3263390E+01  0.1640620E+02 -0.2310450E+00  0.2113840E+00 -0.1611817E+01  0.8668751E-02  0.2112061E+00
 -0.4855770E+01  0.1600730E+02 -0.2310450E+00  0.2399782E+00 -0.1568247E+01 -0.6117844E-03  0.2399774E+00
 -0.6401380E+01  0.1545430E+02 -0.2310450E+00  0.2554822E+00 -0.1532783E+01 -0.9709504E-02  0.2552976E+00
 -0.7885340E+01  0.1475240E+02 -0.2310450E+00  0.2644904E+00 -0.1501533E+01 -0.1830487E-01  0.2638562E+00
 -0.9293360E+01  0.1390850E+02 -0.2310450E+00  0.2726018E+00 -0.1474881E+01 -0.2610666E-01  0.2713488E+00
 -0.1061190E+02  0.1293060E+02 -0.2310450E+00  0.2770676E+00 -0.1450202E+01 -0.3333172E-01  0.2750553E+00
 -0.1182820E+02  0.1182820E+02 -0.2310450E+00  0.2804059E+00 -0.1428110E+01 -0.3987449E-01  0.2775563E+00
 -0.1293060E+02  0.1061190E+02 -0.2310450E+00  0.2833226E+00 -0.1408798E+01 -0.4569734E-01  0.2796131E+00
 -0.1390850E+02  0.9293360E+01 -0.2310450E+00  0.2828420E+00 -0.1389683E+01 -0.5094671E-01  0.2782157E+00
 -0.1475240E+02  0.7885330E+01 -0.2310450E+00  0.2829708E+00 -0.1373372E+01 -0.5550317E-01  0.2774741E+00
 -0.1545430E+02  0.6401370E+01 -0.2310450E+00  0.2841859E+00 -0.1360215E+01 -0.5940282E-01  0.2779081E+00
 -0.1600730E+02  0.4855770E+01 -0.2310450E+00  0.2854643E+00 -0.1349599E+01 -0.6263041E-01  0.2785091E+00
 -0.1640620E+02  0.3263390E+01 -0.2310450E+00  0.2866254E+00 -0.1341407E+01 -0.6517366E-01  0.2791173E+00
 -0.1664710E+02  0.1639590E+01 -0.2310450E+00  0.2868780E+00 -0.1334984E+01 -0.6702419E-01  0.2789386E+00
 -0.1672760E+02 -0.1462370E-05 -0.2310450E+00  0.2860813E+00 -0.1330197E+01 -0.6816867E-01  0.2778409E+00
 -0.1664710E+02 -0.1639590E+01 -0.2310450E+00  0.2840739E+00 -0.1327004E+01 -0.6857090E-01  0.2756737E+00
 -0.1640620E+02 -0.3263400E+01 -0.2310450E+00  0.2809214E+00 -0.1325528E+01 -0.6821233E-01  0.2725141E+00
 -0.1600730E+02 -0.4855770E+01 -0.2310450E+00  0.2766192E+00 -0.1325840E+01 -0.6708404E-01  0.2683616E+00
 -0.1545430E+02 -0.6401380E+01 -0.2310450E+00  0.2722207E+00 -0.1328098E+01 -0.6542090E-01  0.2642427E+00
 -0.1475240E+02 -0.7885340E+01 -0.2310450E+00  0.2679524E+00 -0.1332301E+01 -0.6330133E-01  0.2603678E+00
 -0.1390850E+02 -0.9293360E+01 -0.2310450E+00  0.2645074E+00 -0.1338513E+01 -0.6088964E-01  0.2574036E+00
 -0.1293060E+02 -0.1061190E+02 -0.2310450E+00  0.2609443E+00 -0.1346403E+01 -0.5806404E-01  0.2544022E+00
 -0.1182820E+02 -0.1182820E+02 -0.2310450E+00  0.2528601E+00 -0.1356321E+01 -0.5381742E-01  0.2470666E+00
 -0.1061190E+02 -0.1293060E+02 -0.2310450E+00  0.2441561E+00 -0.1368029E+01 -0.4916844E-01  0.2391541E+00
 -0.9293350E+01 -0.1390850E+02 -0.2310450E+00  0.2335598E+00 -0.1381989E+01 -0.4383616E-01  0.2294092E+00
 -0.7885340E+01 -0.1475240E+02 -0.2310450E+00  0.2175085E+00 -0.1399637E+01 -0.3704705E-01  0.2143303E+00
 -0.6401370E+01 -0.1545430E+02 -0.2310450E+00  0.1981086E+00 -0.1421345E+01 -0.2949741E-01  0.1959003E+00
 -0.4855760E+01 -0.1600730E+02 -0.2310450E+00  0.1683239E+00 -0.1455506E+01 -0.1936309E-01  0.1672065E+00
 -0.3263390E+01 -0.1640620E+02 -0.2310450E+00  0.1181423E+00 -0.1536089E+01 -0.4099621E-02  0.1180711E+00
 -0.1639590E+01 -0.1664710E+02 -0.2310450E+00  0.5001577E-01 -0.1920668E+01  0.1714426E-01  0.4698565E-01
  0.1994750E-06 -0.1672760E+02 -0.2310450E+00  0.4251875E-01  0.2671246E+01  0.3790169E-01 -0.1926931E-01
  0.1639600E+01 -0.1664710E+02 -0.2310450E+00  0.9453701E-01  0.2209964E+01  0.5639393E-01 -0.7587471E-01
  0.3263390E+01 -0.1640620E+02 -0.2310450E+00  0.1422597E+00  0.2098836E+01  0.7167626E-01 -0.1228834E+00
  0.4855770E+01 -0.1600730E+02 -0.2310450E+00  0.1714448E+00  0.2061640E+01  0.8081390E-01 -0.1512033E+00
  0.6401380E+01 -0.1545430E+02 -0.2310450E+00  0.1871236E+00  0.2048161E+01  0.8597205E-01 -0.1662049E+00
  0.7885340E+01 -0.1475240E+02 -0.2310450E+00  0.1960201E+00  0.2043512E+01  0.8924905E-01 -0.1745236E+00
  0.9293360E+01 -0.1390850E+02 -0.2310450E+00  0.2039060E+00  0.2040322E+01  0.9225993E-01 -0.1818400E+00
  0.1061190E+02 -0.1293060E+02 -0.2310450E+00  0.2079569E+00  0.2040704E+01  0.9416381E-01 -0.1854164E+00
  0.1182820E+02 -0.1182820E+02 -0.2310450E+00  0.2107828E+00  0.2041924E+01  0.9567247E-01 -0.1878195E+00
  0.1293060E+02 -0.1061190E+02 -0.2310450E+00  0.2131538E+00  0.2043213E+01  0.9699349E-01 -0.1898073E+00
  0.1390850E+02 -0.9293360E+01 -0.2310450E+00  0.2119559E+00  0.2047017E+01  0.9716567E-01 -0.1883723E+00
  0.1475240E+02 -0.7885330E+01 -0.2310450E+00  0.2112529E+00  0.2048351E+01  0.9709362E-01 -0.1876182E+00
  0.1545430E+02 -0.6401380E+01 -0.2310450E+00  0.2115338E+00  0.2046445E+01  0.9686452E-01 -0.1880527E+00
  0.1600730E+02 -0.4855760E+01 -0.2310450E+00  0.2118292E+00  0.2042871E+01  0.9632610E-01 -0.1886607E+00
  0.1640620E+02 -0.3263390E+01 -0.2310450E+00  0.2119911E+00  0.2037857E+01  0.9545188E-01 -0.1892860E+00
  0.1664710E+02 -0.1639590E+01 -0.2310450E+00  0.2112432E+00  0.2032356E+01  0.9407611E-01 -0.1891385E+00
  0.1672760E+02  0.0000000E+00 -0.4105000E+00  0.2082175E+00  0.2026489E+01  0.9163328E-01 -0.1869703E+00
  0.1664710E+02  0.1639590E+01 -0.4105000E+00  0.2053164E+00  0.2020731E+01  0.8929348E-01 -0.1848824E+00
  0.1640620E+02  0.3263390E+01 -0.4105000E+00  0.2013815E+00  0.2014962E+01  0.8653466E-01 -0.1818414E+00
  0.1600730E+02  0.4855770E+01 -0.4105000E+00  0.1964271E+00  0.2009278E+01  0.8339608E-01 -0.1778446E+00
  0.1545430E+02  0.6401380E+01 -0.4105000E+00  0.1913161E+00  0.2001333E+01  0.7984742E-01 -0.1738569E+00
  0.1475240E+02  0.7885340E+01 -0.4105000E+00  0.1862285E+00  0.1990430E+01  0.7587433E-01 -0.1700710E+00
  0.1390850E+02  0.9293360E+01 -0.4105000E+00  0.1817714E+00  0.1975104E+01  0.7150558E-01 -0.1671161E+00
  0.1293060E+02  0.1061190E+02 -0.4105000E+00  0.1771603E+00  0.1957117E+01  0.6675102E-01 -0.1641038E+00
  0.1182820E+02  0.1182820E+02 -0.4105000E+00  0.1687317E+00  0.1945837E+01  0.6180825E-01 -0.1570036E+00
  0.1061190E+02  0.1293060E+02 -0.4105000E+00  0.1595772E+00  0.1932921E+01  0.5653206E-01 -0.1492280E+00
  0.9293360E+01  0.1390850E+02 -0.4105000E+00  0.1486257E+00  0.1921247E+01  0.5102640E-01 -0.1395919E+00
  0.7885330E+01  0.1475240E+02 -0.4105000E+00  0.1328958E+00  0.1919737E+01  0.4543740E-01 -0.1248869E+00
  0.6401380E+01  0.1545430E+02 -0.4105000E+00  0.1138315E+00  0.1927066E+01  0.3970226E-01 -0.1066834E+00
  0.4855770E+01  0.1600730E+02 -0.4105000E+00  0.8551493E-01  0.1983129E+01  0.3426986E-01 -0.7834781E-01
  0.3263390E+01  0.1640620E+02 -0.4105000E+00  0.4224655E-01  0.2353389E+01  0.2978890E-01 -0.2995650E-01
  0.1639590E+01  0.1664710E+02 -0.4105000E+00  0.4822762E-01 -0.2152642E+01  0.2650429E-01  0.4029176E-01
 -0.7311870E-06  0.1672760E+02 -0.4105000E+00  0.1085270E+00 -0.1779259E+01  0.2246030E-01  0.1061774E+00
 -0.1639590E+01  0.1664710E+02 -0.4105000E+00  0.1636659E+00 -0.1672558E+01  0.1662622E-01  0.1628192E+00
 -0.3263390E+01  0.1640620E+02 -0.4105000E+00  0.2101927E+00 -0.1611837E+01  0.8624104E-02  0.2100157E+00
 -0.4855770E+01  0.1600730E+02 -0.4105000E+00  0.2385359E+00 -0.1568277E+01 -0.6008586E-03  0.2385352E+00
 -0.6401380E+01  0.1545430E+02 -0.4105000E+00  0.2539684E+00 -0.1532817E+01 -0.9643207E-02  0.2537853E+00
 -0.7885340E+01  0.1475240E+02 -0.4105000E+00  0.2629929E+00 -0.1501620E+01 -0.1817833E-01  0.2623639E+00
 -0.9293360E+01  0.1390850E+02 -0.4105000E+00  0.2709194E+00 -0.1474904E+01 -0.2593922E-01  0.2696747E+00
 -0.1061190E+02  0.1293060E+02 -0.4105000E+00  0.2753968E+00 -0.1450258E+01 -0.3311540E-01  0.2733985E+00
 -0.1182820E+02  0.1182820E+02 -0.4105000E+00  0.2787149E+00 -0.1428166E+01 -0.3961847E-01  0.2758847E+00