 VARIABLES="X" "Y" "Z" "abs(eta) (m)" "angle(phi) (rad)" "PRE1" "PRE2"
ZONE N=   3200 ,E =    3136 ,F=FEPOINT,ET=QUADRILATERAL
  0.1672760E+02  0.0000000E+00  0.0000000E+00  0.1795697E+00  0.1910576E+01  0.5984689E-01 -0.1693034E+00
  0.1664710E+02  0.1639590E+01  0.0000000E+00  0.1809046E+00  0.1911666E+01  0.6047756E-01 -0.1704961E+00
  0.1640620E+02  0.3263390E+01  0.0000000E+00  0.1827484E+00  0.1910965E+01  0.6097331E-01 -0.1722766E+00
  0.1600730E+02  0.4855770E+01  0.0000000E+00  0.1848476E+00  0.1908859E+01  0.6130651E-01 -0.1743851E+00
  0.1545430E+02  0.6401380E+01  0.0000000E+00  0.1867225E+00  0.1906037E+01  0.6143096E-01 -0.1763279E+00
  0.1475240E+02  0.7885340E+01  0.0000000E+00  0.1861264E+00  0.1905142E+01  0.6107752E-01 -0.1758197E+00
  0.1390850E+02  0.9293360E+01  0.0000000E+00  0.1836405E+00  0.1905263E+01  0.6028290E-01 -0.1734641E+00
  0.1293060E+02  0.1061190E+02  0.0000000E+00  0.1812484E+00  0.1904514E+01  0.5936929E-01 -0.1712492E+00
  0.1182820E+02  0.1182820E+02  0.0000000E+00  0.1788910E+00  0.1903106E+01  0.5835912E-01 -0.1691041E+00
  0.1061190E+02  0.1293060E+02  0.0000000E+00  0.1754494E+00  0.1902337E+01  0.5710885E-01 -0.1658948E+00
  0.9293360E+01  0.1390850E+02  0.0000000E+00  0.1704240E+00  0.1902080E+01  0.5543163E-01 -0.1611573E+00
  0.7885330E+01  0.1475240E+02  0.0000000E+00  0.1648272E+00  0.1902157E+01  0.5362329E-01 -0.1558607E+00
  0.6401380E+01  0.1545430E+02  0.0000000E+00  0.1541834E+00  0.1907852E+01  0.5098992E-01 -0.1455079E+00
  0.4855770E+01  0.1600730E+02  0.0000000E+00  0.1372856E+00  0.1922747E+01  0.4732640E-01 -0.1288703E+00
  0.3263390E+01  0.1640620E+02  0.0000000E+00  0.1078867E+00  0.1964601E+01  0.4139661E-01 -0.9962864E-01
  0.1639590E+01  0.1664710E+02  0.0000000E+00  0.5987273E-01  0.2134960E+01  0.3201449E-01 -0.5059463E-01
 -0.7311870E-06  0.1672760E+02  0.0000000E+00  0.2244466E-01 -0.2949731E+01  0.2203283E-01  0.4279892E-02
 -0.1639590E+01  0.1664710E+02  0.0000000E+00  0.6465624E-01 -0.1762673E+01  0.1233007E-01  0.6346967E-01
 -0.3263390E+01  0.1640620E+02  0.0000000E+00  0.1233968E+00 -0.1597800E+01  0.3331808E-02  0.1233518E+00
 -0.4855770E+01  0.1600730E+02  0.0000000E+00  0.1620648E+00 -0.1551878E+01 -0.3065775E-02  0.1620358E+00
 -0.6401380E+01  0.1545430E+02  0.0000000E+00  0.1849881E+00 -0.1528429E+01 -0.7835105E-02  0.1848221E+00
 -0.7885340E+01  0.1475240E+02  0.0000000E+00  0.2000033E+00 -0.1512031E+01 -0.1174652E-01  0.1996580E+00
 -0.9293360E+01  0.1390850E+02  0.0000000E+00  0.2089192E+00 -0.1499493E+01 -0.1488400E-01  0.2083883E+00
 -0.1061190E+02  0.1293060E+02  0.0000000E+00  0.2168556E+00 -0.1488632E+01 -0.1779778E-01  0.2161240E+00
 -0.1182820E+02  0.1182820E+02  0.0000000E+00  0.2225445E+00 -0.1479091E+01 -0.2037983E-01  0.2216094E+00
 -0.1293060E+02  0.1061190E+02  0.0000000E+00  0.2269049E+00 -0.1470952E+01 -0.2261750E-01  0.2257748E+00
 -0.1390850E+02  0.9293360E+01  0.0000000E+00  0.2312713E+00 -0.1464195E+01 -0.2460719E-01  0.2299585E+00
 -0.1475240E+02  0.7885330E+01  0.0000000E+00  0.2357089E+00 -0.1458879E+01 -0.2632480E-01  0.2342342E+00
 -0.1545430E+02  0.6401370E+01  0.0000000E+00  0.2379924E+00 -0.1454829E+01 -0.2753746E-01  0.2363939E+00
 -0.1600730E+02  0.4855770E+01  0.0000000E+00  0.2376077E+00 -0.1451787E+01 -0.2821093E-01  0.2359271E+00
 -0.1640620E+02  0.3263390E+01  0.0000000E+00  0.2369537E+00 -0.1449908E+01 -0.2857532E-01  0.2352243E+00
 -0.1664710E+02  0.1639590E+01  0.0000000E+00  0.2366172E+00 -0.1449357E+01 -0.2866405E-01  0.2348746E+00
 -0.1672760E+02 -0.1462370E-05  0.0000000E+00  0.2369918E+00 -0.1450297E+01 -0.2848819E-01  0.2352733E+00
 -0.1664710E+02 -0.1639590E+01  0.0000000E+00  0.2381281E+00 -0.1452989E+01 -0.2798835E-01  0.2364776E+00
 -0.1640620E+02 -0.3263400E+01  0.0000000E+00  0.2397997E+00 -0.1457556E+01 -0.2709704E-01  0.2382638E+00
 -0.1600730E+02 -0.4855770E+01  0.0000000E+00  0.2417540E+00 -0.1463821E+01 -0.2581234E-01  0.2403720E+00
 -0.1545430E+02 -0.6401380E+01  0.0000000E+00  0.2435038E+00 -0.1471534E+01 -0.2413107E-01  0.2423052E+00
 -0.1475240E+02 -0.7885340E+01  0.0000000E+00  0.2427839E+00 -0.1479812E+01 -0.2205903E-01  0.2417797E+00
 -0.1390850E+02 -0.9293360E+01  0.0000000E+00  0.2402020E+00 -0.1488905E+01 -0.1964851E-01  0.2393970E+00
 -0.1293060E+02 -0.1061190E+02  0.0000000E+00  0.2377446E+00 -0.1499805E+01 -0.1686352E-01  0.2371458E+00
 -0.1182820E+02 -0.1182820E+02  0.0000000E+00  0.2353561E+00 -0.1512554E+01 -0.1369988E-01  0.2349570E+00
 -0.1061190E+02 -0.1293060E+02  0.0000000E+00  0.2319144E+00 -0.1526887E+01 -0.1017991E-01  0.2316908E+00
 -0.9293350E+01 -0.1390850E+02  0.0000000E+00  0.2269700E+00 -0.1542452E+01 -0.6432496E-02  0.2268788E+00
 -0.7885340E+01 -0.1475240E+02  0.0000000E+00  0.2215062E+00 -0.1560164E+01 -0.2355161E-02  0.2214937E+00
 -0.6401370E+01 -0.1545430E+02  0.0000000E+00  0.2110360E+00 -0.1579945E+01  0.1930727E-02  0.2110272E+00
 -0.4855760E+01 -0.1600730E+02  0.0000000E+00  0.1943432E+00 -0.1603536E+01  0.6361645E-02  0.1942390E+00
 -0.3263390E+01 -0.1640620E+02  0.0000000E+00  0.1651246E+00 -0.1634760E+01  0.1055483E-01  0.1647869E+00
 -0.1639590E+01 -0.1664710E+02  0.0000000E+00  0.1163824E+00 -0.1692251E+01  0.1410042E-01  0.1155251E+00
  0.1994750E-06 -0.1672760E+02  0.0000000E+00  0.6304511E-01 -0.1852841E+01  0.1754675E-01  0.6055409E-01
  0.1639600E+01 -0.1664710E+02  0.0000000E+00  0.2145603E-01 -0.3074689E+01  0.2140802E-01  0.1434425E-02
  0.3263390E+01 -0.1640620E+02  0.0000000E+00  0.6365845E-01  0.1986253E+01  0.2569306E-01 -0.5824314E-01
  0.4855770E+01 -0.1600730E+02  0.0000000E+00  0.1012266E+00  0.1869810E+01  0.2981910E-01 -0.9673491E-01
  0.6401380E+01 -0.1545430E+02  0.0000000E+00  0.1240080E+00  0.1844681E+01  0.3354080E-01 -0.1193859E+00
  0.7885340E+01 -0.1475240E+02  0.0000000E+00  0.1391223E+00  0.1839802E+01  0.3697496E-01 -0.1341189E+00
  0.9293360E+01 -0.1390850E+02  0.0000000E+00  0.1483183E+00  0.1845221E+01  0.4019328E-01 -0.1427684E+00
  0.1061190E+02 -0.1293060E+02  0.0000000E+00  0.1565228E+00  0.1850597E+01  0.4322600E-01 -0.1504357E+00
  0.1182820E+02 -0.1182820E+02  0.0000000E+00  0.1625043E+00  0.1857624E+01  0.4597421E-01 -0.1558654E+00
  0.1293060E+02 -0.1061190E+02  0.0000000E+00  0.1671778E+00  0.1865232E+01  0.4851495E-01 -0.1599835E+00
  0.1390850E+02 -0.9293360E+01  0.0000000E+00  0.1718305E+00  0.1871372E+01  0.5087396E-01 -0.1641267E+00
  0.1475240E+02 -0.7885330E+01  0.0000000E+00  0.1765241E+00  0.1876026E+01  0.5304763E-01 -0.1683648E+00
  0.1545430E+02 -0.6401380E+01  0.0000000E+00  0.1791416E+00  0.1882735E+01  0.5497940E-01 -0.1704963E+00
  0.1600730E+02 -0.4855760E+01  0.0000000E+00  0.1791822E+00  0.1892195E+01  0.5660260E-01 -0.1700071E+00
  0.1640620E+02 -0.3263390E+01  0.0000000E+00  0.1789307E+00  0.1900611E+01  0.5794984E-01 -0.1692868E+00
  0.1664710E+02 -0.1639590E+01  0.0000000E+00  0.1789363E+00  0.1906969E+01  0.5902681E-01 -0.1689202E+00
  0.1672760E+02  0.0000000E+00 -0.2568960E-01  0.1794526E+00  0.1910561E+01  0.5980526E-01 -0.1691939E+00
  0.1664710E+02  0.1639590E+01 -0.2568960E-01  0.1807844E+00  0.1911656E+01  0.6043582E-01 -0.1703834E+00
  0.1640620E+02  0.3263390E+01 -0.2568960E-01  0.1826196E+00  0.1910972E+01  0.6093158E-01 -0.1721548E+00
  0.1600730E+02  0.4855770E+01 -0.2568960E-01  0.1847075E+00  0.1908869E+01  0.6126192E-01 -0.1742523E+00
  0.1545430E+02  0.6401380E+01 -0.2568960E-01  0.1865706E+00  0.1906066E+01  0.6138624E-01 -0.1761826E+00
  0.1475240E+02  0.7885340E+01 -0.2568960E-01  0.1859794E+00  0.1905158E+01  0.6103220E-01 -0.1756799E+00
  0.1390850E+02  0.9293360E+01 -0.2568960E-01  0.1835091E+00  0.1905274E+01  0.6024159E-01 -0.1733394E+00
  0.1293060E+02  0.1061190E+02 -0.2568960E-01  0.1811246E+00  0.1904514E+01  0.5932884E-01 -0.1711322E+00
  0.1182820E+02  0.1182820E+02 -0.2568960E-01  0.1787685E+00  0.1903103E+01  0.5831872E-01 -0.1689884E+00
  0.1061190E+02  0.1293060E+02 -0.2568960E-01  0.1753283E+00  0.1902336E+01  0.5706915E-01 -0.1657803E+00
  0.9293360E+01  0.1390850E+02 -0.2568960E-01  0.1703138E+00  0.1902079E+01  0.5539560E-01 -0.1610532E+00
  0.7885330E+01  0.1475240E+02 -0.2568960E-01  0.1647117E+00  0.1902156E+01  0.5358547E-01 -0.1557515E+00
  0.6401380E+01  0.1545430E+02 -0.2568960E-01  0.1540876E+00  0.1907834E+01  0.5095570E-01 -0.1454183E+00
  0.4855770E+01  0.1600730E+02 -0.2568960E-01  0.1372070E+00  0.1922724E+01  0.4729630E-01 -0.1287976E+00
  0.3263390E+01  0.1640620E+02 -0.2568960E-01  0.1078085E+00  0.1964592E+01  0.4136569E-01 -0.9955674E-01
  0.1639590E+01  0.1664710E+02 -0.2568960E-01  0.5982861E-01  0.2134976E+01  0.3199171E-01 -0.5055683E-01
 -0.7311870E-06  0.1672760E+02 -0.2568960E-01  0.2242736E-01 -0.2950064E+01  0.2201726E-01  0.4269272E-02
 -0.1639590E+01  0.1664710E+02 -0.2568960E-01  0.6459279E-01 -0.1762737E+01  0.1232197E-01  0.6340660E-01
 -0.3263390E+01  0.1640620E+02 -0.2568960E-01  0.1232977E+00 -0.1597808E+01  0.3330030E-02  0.1232527E+00
 -0.4855770E+01  0.1600730E+02 -0.2568960E-01  0.1619638E+00 -0.1551868E+01 -0.3065459E-02  0.1619348E+00
 -0.6401380E+01  0.1545430E+02 -0.2568960E-01  0.1848685E+00 -0.1528431E+01 -0.7829717E-02  0.1847026E+00
 -0.7885340E+01  0.1475240E+02 -0.2568960E-01  0.1998614E+00 -0.1512033E+01 -0.1173767E-01  0.1995164E+00
 -0.9293360E+01  0.1390850E+02 -0.2568960E-01  0.2087826E+00 -0.1499490E+01 -0.1487500E-01  0.2082520E+00
 -0.1061190E+02  0.1293060E+02 -0.2568960E-01  0.2167032E+00 -0.1488634E+01 -0.1778482E-01  0.2159722E+00
 -0.1182820E+02  0.1182820E+02 -0.2568960E-01  0.2223900E+00 -0.1479093E+01 -0.2036525E-01  0.2214555E+00
 -0.1293060E+02  0.1061190E+02 -0.2568960E-01  0.2267487E+00 -0.1470953E+01 -0.2260171E-01  0.2256194E+00
 -0.1390850E+02  0.9293360E+01 -0.2568960E-01  0.2311048E+00 -0.1464197E+01 -0.2458907E-01  0.2297929E+00
 -0.1475240E+02  0.7885330E+01 -0.2568960E-01  0.2355249E+00 -0.1458876E+01 -0.2630493E-01  0.2340513E+00
 -0.1545430E+02  0.6401370E+01 -0.2568960E-01  0.2378022E+00 -0.1454831E+01 -0.2751516E-01  0.2362050E+00
 -0.1600730E+02  0.4855770E+01 -0.2568960E-01  0.2374292E+00 -0.1451785E+01 -0.2819012E-01  0.2357497E+00
 -0.1640620E+02  0.3263390E+01 -0.2568960E-01  0.2367857E+00 -0.1449907E+01 -0.2855519E-01  0.2350576E+00
 -0.1664710E+02  0.1639590E+01 -0.2568960E-01  0.2364560E+00 -0.1449361E+01 -0.2864349E-01  0.2347147E+00
 -0.1672760E+02 -0.1462370E-05 -0.2568960E-01  0.2368324E+00 -0.1450304E+01 -0.2846742E-01  0.2351153E+00
 -0.1664710E+02 -0.1639590E+01 -0.2568960E-01  0.2379653E+00 -0.1452995E+01 -0.2796786E-01  0.2363161E+00
 -0.1640620E+02 -0.3263400E+01 -0.2568960E-01  0.2396287E+00 -0.1457559E+01 -0.2707692E-01  0.2380940E+00
 -0.1600730E+02 -0.4855770E+01 -0.2568960E-01  0.2415718E+00 -0.1463818E+01 -0.2579374E-01  0.2401907E+00
 -0.1545430E+02 -0.6401380E+01 -0.2568960E-01  0.2433103E+00 -0.1471530E+01 -0.2411278E-01  0.2421125E+00
 -0.1475240E+02 -0.7885340E+01 -0.2568960E-01  0.2425947E+00 -0.1479811E+01 -0.2204222E-01  0.2415912E+00
 -0.1390850E+02 -0.9293360E+01 -0.2568960E-01  0.2400284E+00 -0.1488914E+01 -0.1963217E-01  0.2392242E+00
 -0.1293060E+02 -0.1061190E+02 -0.2568960E-01  0.2375793E+00 -0.1499810E+01 -0.1685077E-01  0.2369810E+00
 -0.1182820E+02 -0.1182820E+02 -0.2568960E-01  0.2351920E+00 -0.1512561E+01 -0.1368870E-01  0.2347934E+00
 -0.1061190E+02 -0.1293060E+02 -0.2568960E-01  0.2317516E+00 -0.1526886E+01 -0.1017302E-01  0.2315282E+00
 -0.9293350E+01 -0.1390850E+02 -0.2568960E-01  0.2268205E+00 -0.1542459E+01 -0.6426672E-02  0.2267295E+00
 -0.7885340E+01 -0.1475240E+02 -0.2568960E-01  0.2213493E+00 -0.1560168E+01 -0.2352483E-02  0.2213368E+00
 -0.6401370E+01 -0.1545430E+02 -0.2568960E-01  0.2108979E+00 -0.1579954E+01  0.1931314E-02  0.2108891E+00
 -0.4855760E+01 -0.1600730E+02 -0.2568960E-01  0.1942222E+00 -0.1603533E+01  0.6357007E-02  0.1941181E+00
 -0.3263390E+01 -0.1640620E+02 -0.2568960E-01  0.1650040E+00 -0.1634760E+01  0.1054709E-01  0.1646665E+00
 -0.1639590E+01 -0.1664710E+02 -0.2568960E-01  0.1162966E+00 -0.1692252E+01  0.1409017E-01  0.1154399E+00
  0.1994750E-06 -0.1672760E+02 -0.2568960E-01  0.6300694E-01 -0.1852821E+01  0.1753487E-01  0.6051780E-01
  0.1639600E+01 -0.1664710E+02 -0.2568960E-01  0.2144143E-01 -0.3073890E+01  0.2139231E-01  0.1450536E-02
  0.3263390E+01 -0.1640620E+02 -0.2568960E-01  0.6360339E-01  0.1986334E+01  0.2567555E-01 -0.5819069E-01
  0.4855770E+01 -0.1600730E+02 -0.2568960E-01  0.1011705E+00  0.1869762E+01  0.2979797E-01 -0.9668268E-01
  0.6401380E+01 -0.1545430E+02 -0.2568960E-01  0.1239323E+00  0.1844648E+01  0.3351641E-01 -0.1193141E+00
  0.7885340E+01 -0.1475240E+02 -0.2568960E-01  0.1390249E+00  0.1839799E+01  0.3694865E-01 -0.1340251E+00
  0.9293360E+01 -0.1390850E+02 -0.2568960E-01  0.1482261E+00  0.1845203E+01  0.4016574E-01 -0.1426804E+00
  0.1061190E+02 -0.1293060E+02 -0.2568960E-01  0.1564140E+00  0.1850592E+01  0.4319515E-01 -0.1503313E+00
  0.1182820E+02 -0.1182820E+02 -0.2568960E-01  0.1623932E+00  0.1857614E+01  0.4594124E-01 -0.1557593E+00
  0.1293060E+02 -0.1061190E+02 -0.2568960E-01  0.1670655E+00  0.1865221E+01  0.4848058E-01 -0.1598766E+00
  0.1390850E+02 -0.9293360E+01 -0.2568960E-01  0.1717068E+00  0.1871378E+01  0.5083818E-01 -0.1640083E+00
  0.1475240E+02 -0.7885330E+01 -0.2568960E-01  0.1763843E+00  0.1876051E+01  0.5300986E-01 -0.1682302E+00
  0.1545430E+02 -0.6401380E+01 -0.2568960E-01  0.1789950E+00  0.1882768E+01  0.5493997E-01 -0.1703550E+00
  0.1600730E+02 -0.4855760E+01 -0.2568960E-01  0.1790471E+00  0.1892211E+01  0.5656267E-01 -0.1698780E+00
  0.1640620E+02 -0.3263390E+01 -0.2568960E-01  0.1788044E+00  0.1900611E+01  0.5790901E-01 -0.1691673E+00
  0.1664710E+02 -0.1639590E+01 -0.2568960E-01  0.1788172E+00  0.1906955E+01  0.5898517E-01 -0.1688086E+00
  0.1672760E+02  0.0000000E+00 -0.1027320E+00  0.1791168E+00  0.1910491E+01  0.5968158E-01 -0.1688814E+00
  0.1664710E+02  0.1639590E+01 -0.1027320E+00  0.1804373E+00  0.1911603E+01  0.6031067E-01 -0.1700595E+00
  0.1640620E+02  0.3263390E+01 -0.1027320E+00  0.1822485E+00  0.1910949E+01  0.6080373E-01 -0.1718063E+00
  0.1600730E+02  0.4855770E+01 -0.1027320E+00  0.1843026E+00  0.1908894E+01  0.6113186E-01 -0.1738687E+00
  0.1545430E+02  0.6401380E+01 -0.1027320E+00  0.1861297E+00  0.1906119E+01  0.6125046E-01 -0.1757630E+00
  0.1475240E+02  0.7885340E+01 -0.1027320E+00  0.1855498E+00  0.1905204E+01  0.6089927E-01 -0.1752712E+00
  0.1390850E+02  0.9293360E+01 -0.1027320E+00  0.1831245E+00  0.1905276E+01  0.6011564E-01 -0.1729760E+00
  0.1293060E+02  0.1061190E+02 -0.1027320E+00  0.1807640E+00  0.1904496E+01  0.5920762E-01 -0.1707925E+00
  0.1182820E+02  0.1182820E+02 -0.1027320E+00  0.1784100E+00  0.1903089E+01  0.5819931E-01 -0.1686504E+00
  0.1061190E+02  0.1293060E+02 -0.1027320E+00  0.1749730E+00  0.1902319E+01  0.5695084E-01 -0.1654453E+00
  0.9293360E+01  0.1390850E+02 -0.1027320E+00  0.1699959E+00  0.1902026E+01  0.5528379E-01 -0.1607555E+00
  0.7885330E+01  0.1475240E+02 -0.1027320E+00  0.1643711E+00  0.1902141E+01  0.5347240E-01 -0.1554302E+00
  0.6401380E+01  0.1545430E+02 -0.1027320E+00  0.1538035E+00  0.1907796E+01  0.5085620E-01 -0.1451522E+00
  0.4855770E+01  0.1600730E+02 -0.1027320E+00  0.1369703E+00  0.1922643E+01  0.4720429E-01 -0.1285792E+00
  0.3263390E+01  0.1640620E+02 -0.1027320E+00  0.1075903E+00  0.1964557E+01  0.4127847E-01 -0.9935669E-01
  0.1639590E+01  0.1664710E+02 -0.1027320E+00  0.5969340E-01  0.2134964E+01  0.3191879E-01 -0.5044297E-01
 -0.7311870E-06  0.1672760E+02 -0.1027320E+00  0.2237464E-01 -0.2951165E+01  0.2197018E-01  0.4235050E-02
 -0.1639590E+01  0.1664710E+02 -0.1027320E+00  0.6440268E-01 -0.1762960E+01  0.1229980E-01  0.6321725E-01
 -0.3263390E+01  0.1640620E+02 -0.1027320E+00  0.1230177E+00 -0.1597824E+01  0.3324517E-02  0.1229728E+00
 -0.4855770E+01  0.1600730E+02 -0.1027320E+00  0.1616633E+00 -0.1551843E+01 -0.3063950E-02  0.1616342E+00
 -0.6401380E+01  0.1545430E+02 -0.1027320E+00  0.1845123E+00 -0.1528419E+01 -0.7816829E-02  0.1843467E+00
 -0.7885340E+01  0.1475240E+02 -0.1027320E+00  0.1994404E+00 -0.1512042E+01 -0.1171118E-01  0.1990962E+00
 -0.9293360E+01  0.1390850E+02 -0.1027320E+00  0.2083795E+00 -0.1499494E+01 -0.1484529E-01  0.2078500E+00
 -0.1061190E+02  0.1293060E+02 -0.1027320E+00  0.2162520E+00 -0.1488634E+01 -0.1774779E-01  0.2155225E+00
 -0.1182820E+02  0.1182820E+02 -0.1027320E+00  0.2219348E+00 -0.1479097E+01 -0.2032268E-01  0.2210024E+00
 -0.1293060E+02  0.1061190E+02 -0.1027320E+00  0.2262907E+00 -0.1470957E+01 -0.2255527E-01  0.2251639E+00
 -0.1390850E+02  0.9293360E+01 -0.1027320E+00  0.2306183E+00 -0.1464207E+01 -0.2453488E-01  0.2293095E+00
 -0.1475240E+02  0.7885330E+01 -0.1027320E+00  0.2349861E+00 -0.1458884E+01 -0.2624297E-01  0.2335161E+00
 -0.1545430E+02  0.6401370E+01 -0.1027320E+00  0.2372466E+00 -0.1454832E+01 -0.2745043E-01  0.2356532E+00
 -0.1600730E+02  0.4855770E+01 -0.1027320E+00  0.2369083E+00 -0.1451791E+01 -0.2812683E-01  0.2352327E+00
 -0.1640620E+02  0.3263390E+01 -0.1027320E+00  0.2362976E+00 -0.1449916E+01 -0.2849433E-01  0.2345733E+00
 -0.1664710E+02  0.1639590E+01 -0.1027320E+00  0.2359903E+00 -0.1449374E+01 -0.2858415E-01  0.2342528E+00
 -0.1672760E+02 -0.1462370E-05 -0.1027320E+00  0.2363728E+00 -0.1450321E+01 -0.2840828E-01  0.2346594E+00
 -0.1664710E+02 -0.1639590E+01 -0.1027320E+00  0.2374943E+00 -0.1453013E+01 -0.2790835E-01  0.2358489E+00
 -0.1640620E+02 -0.3263400E+01 -0.1027320E+00  0.2391333E+00 -0.1457570E+01 -0.2701843E-01  0.2376021E+00
 -0.1600730E+02 -0.4855770E+01 -0.1027320E+00  0.2410414E+00 -0.1463823E+01 -0.2573578E-01  0.2396636E+00
 -0.1545430E+02 -0.6401380E+01 -0.1027320E+00  0.2427437E+00 -0.1471521E+01 -0.2405887E-01  0.2415484E+00
 -0.1475240E+02 -0.7885340E+01 -0.1027320E+00  0.2420410E+00 -0.1479811E+01 -0.2199181E-01  0.2410399E+00
 -0.1390850E+02 -0.9293360E+01 -0.1027320E+00  0.2395192E+00 -0.1488925E+01 -0.1958790E-01  0.2387169E+00
 -0.1293060E+02 -0.1061190E+02 -0.1027320E+00  0.2370943E+00 -0.1499828E+01 -0.1681207E-01  0.2364975E+00
 -0.1182820E+02 -0.1182820E+02 -0.1027320E+00  0.2347087E+00 -0.1512575E+01 -0.1365729E-01  0.2343110E+00
 -0.1061190E+02 -0.1293060E+02 -0.1027320E+00  0.2312721E+00 -0.1526898E+01 -0.1014929E-01  0.2310493E+00
 -0.9293350E+01 -0.1390850E+02 -0.1027320E+00  0.2263776E+00 -0.1542470E+01 -0.6411507E-02  0.2262868E+00
 -0.7885340E+01 -0.1475240E+02 -0.1027320E+00  0.2208849E+00 -0.1560180E+01 -0.2344952E-02  0.2208725E+00
 -0.6401370E+01 -0.1545430E+02 -0.1027320E+00  0.2104886E+00 -0.1579966E+01  0.1930145E-02  0.2104798E+00
 -0.4855760E+01 -0.1600730E+02 -0.1027320E+00  0.1938615E+00 -0.1603538E+01  0.6346302E-02  0.1937576E+00
 -0.3263390E+01 -0.1640620E+02 -0.1027320E+00  0.1646613E+00 -0.1634767E+01  0.1052638E-01  0.1643245E+00
 -0.1639590E+01 -0.1664710E+02 -0.1027320E+00  0.1160377E+00 -0.1692267E+01  0.1406050E-01  0.1151827E+00
  0.1994750E-06 -0.1672760E+02 -0.1027320E+00  0.6289134E-01 -0.1852723E+01  0.1749681E-01  0.6040847E-01
  0.1639600E+01 -0.1664710E+02 -0.1027320E+00  0.2139852E-01 -0.3071574E+01  0.2134609E-01  0.1497068E-02
  0.3263390E+01 -0.1640620E+02 -0.1027320E+00  0.6345727E-01  0.1986415E+01  0.2562126E-01 -0.5805494E-01
  0.4855770E+01 -0.1600730E+02 -0.1027320E+00  0.1010004E+00  0.1869638E+01  0.2973585E-01 -0.9652384E-01
  0.6401380E+01 -0.1545430E+02 -0.1027320E+00  0.1237080E+00  0.1844572E+01  0.3344669E-01 -0.1191007E+00
  0.7885340E+01 -0.1475240E+02 -0.1027320E+00  0.1387377E+00  0.1839795E+01  0.3687187E-01 -0.1337484E+00
  0.9293360E+01 -0.1390850E+02 -0.1027320E+00  0.1479539E+00  0.1845129E+01  0.4008138E-01 -0.1424214E+00
  0.1061190E+02 -0.1293060E+02 -0.1027320E+00  0.1560955E+00  0.1850565E+01  0.4310316E-01 -0.1500264E+00
  0.1182820E+02 -0.1182820E+02 -0.1027320E+00  0.1620696E+00  0.1857581E+01  0.4584453E-01 -0.1554504E+00
  0.1293060E+02 -0.1061190E+02 -0.1027320E+00  0.1667372E+00  0.1865183E+01  0.4837928E-01 -0.1595642E+00
  0.1390850E+02 -0.9293360E+01 -0.1027320E+00  0.1713504E+00  0.1871365E+01  0.5073064E-01 -0.1636685E+00
  0.1475240E+02 -0.7885330E+01 -0.1027320E+00  0.1759776E+00  0.1876112E+01  0.5289787E-01 -0.1678390E+00
  0.1545430E+02 -0.6401380E+01 -0.1027320E+00  0.1785715E+00  0.1882841E+01  0.5482242E-01 -0.1699479E+00
  0.1600730E+02 -0.4855760E+01 -0.1027320E+00  0.1786556E+00  0.1892228E+01  0.5644182E-01 -0.1695056E+00
  0.1640620E+02 -0.3263390E+01 -0.1027320E+00  0.1784437E+00  0.1900577E+01  0.5778643E-01 -0.1688280E+00
  0.1664710E+02 -0.1639590E+01 -0.1027320E+00  0.1784776E+00  0.1906891E+01  0.5886240E-01 -0.1684918E+00
  0.1672760E+02  0.0000000E+00 -0.2310450E+00  0.1785611E+00  0.1910372E+01  0.5947638E-01 -0.1683646E+00
  0.1664710E+02  0.1639590E+01 -0.2310450E+00  0.1798624E+00  0.1911510E+01  0.6010281E-01 -0.1695233E+00
  0.1640620E+02  0.3263390E+01 -0.2310450E+00  0.1816326E+00  0.1910907E+01  0.6059105E-01 -0.1712283E+00
  0.1600730E+02  0.4855770E+01 -0.2310450E+00  0.1836310E+00  0.1908915E+01  0.6091277E-01 -0.1732339E+00
  0.1545430E+02  0.6401380E+01 -0.2310450E+00  0.1853968E+00  0.1906208E+01  0.6102476E-01 -0.1750656E+00
  0.1475240E+02  0.7885340E+01 -0.2310450E+00  0.1848384E+00  0.1905277E+01  0.6067852E-01 -0.1745948E+00
  0.1390850E+02  0.9293360E+01 -0.2310450E+00  0.1824841E+00  0.1905280E+01  0.5990626E-01 -0.1723708E+00
  0.1293060E+02  0.1061190E+02 -0.2310450E+00  0.1801629E+00  0.1904468E+01  0.5900593E-01 -0.1702262E+00
  0.1182820E+02  0.1182820E+02 -0.2310450E+00  0.1778109E+00  0.1903060E+01  0.5799906E-01 -0.1680858E+00
  0.1061190E+02  0.1293060E+02 -0.2310450E+00  0.1743786E+00  0.1902284E+01  0.5675151E-01 -0.1648853E+00
  0.9293360E+01  0.1390850E+02 -0.2310450E+00  0.1694641E+00  0.1901958E+01  0.5509985E-01 -0.1602564E+00
  0.7885330E+01  0.1475240E+02 -0.2310450E+00  0.1638055E+00  0.1902135E+01  0.5328744E-01 -0.1548958E+00
  0.6401380E+01  0.1545430E+02 -0.2310450E+00  0.1533247E+00  0.1907722E+01  0.5068713E-01 -0.1447041E+00
  0.4855770E+01  0.1600730E+02 -0.2310450E+00  0.1365770E+00  0.1922501E+01  0.4705056E-01 -0.1282167E+00
  0.3263390E+01  0.1640620E+02 -0.2310450E+00  0.1072324E+00  0.1964488E+01  0.4113435E-01 -0.9902906E-01
  0.1639590E+01  0.1664710E+02 -0.2310450E+00  0.5948284E-01  0.2134893E+01  0.3180266E-01 -0.5026727E-01
 -0.7311870E-06  0.1672760E+02 -0.2310450E+00  0.2228936E-01 -0.2952692E+01  0.2189286E-01  0.4185487E-02
 -0.1639590E+01  0.1664710E+02 -0.2310450E+00  0.6411498E-01 -0.1763197E+01  0.1225983E-01  0.6293193E-01
 -0.3263390E+01  0.1640620E+02 -0.2310450E+00  0.1225619E+00 -0.1597840E+01  0.3314144E-02  0.1225171E+00
 -0.4855770E+01  0.1600730E+02 -0.2310450E+00  0.1611641E+00 -0.1551799E+01 -0.3061456E-02  0.1611350E+00
 -0.6401380E+01  0.1545430E+02 -0.2310450E+00  0.1839143E+00 -0.1528407E+01 -0.7793707E-02  0.1837491E+00
 -0.7885340E+01  0.1475240E+02 -0.2310450E+00  0.1987388E+00 -0.1512056E+01 -0.1166734E-01  0.1983960E+00
 -0.9293360E+01  0.1390850E+02 -0.2310450E+00  0.2077067E+00 -0.1499492E+01 -0.1479792E-01  0.2071789E+00
 -0.1061190E+02  0.1293060E+02 -0.2310450E+00  0.2154997E+00 -0.1488635E+01 -0.1768573E-01  0.2147728E+00
 -0.1182820E+02  0.1182820E+02 -0.2310450E+00  0.2211754E+00 -0.1479107E+01 -0.2025094E-01  0.2202463E+00
 -0.1293060E+02  0.1061190E+02 -0.2310450E+00  0.2255270E+00 -0.1470967E+01 -0.2247684E-01  0.2244041E+00
 -0.1390850E+02  0.9293360E+01 -0.2310450E+00  0.2298074E+00 -0.1464223E+01 -0.2444511E-01  0.2285036E+00
 -0.1475240E+02  0.7885330E+01 -0.2310450E+00  0.2340903E+00 -0.1458894E+01 -0.2614062E-01  0.2326262E+00
 -0.1545430E+02  0.6401370E+01 -0.2310450E+00  0.2363236E+00 -0.1454841E+01 -0.2734170E-01  0.2347366E+00
 -0.1600730E+02  0.4855770E+01 -0.2310450E+00  0.2360429E+00 -0.1451800E+01 -0.2802202E-01  0.2343736E+00
 -0.1640620E+02  0.3263390E+01 -0.2310450E+00  0.2354876E+00 -0.1449936E+01 -0.2839186E-01  0.2337698E+00
 -0.1664710E+02  0.1639590E+01 -0.2310450E+00  0.2352177E+00 -0.1449396E+01 -0.2848544E-01  0.2334865E+00
 -0.1672760E+02 -0.1462370E-05 -0.2310450E+00  0.2356097E+00 -0.1450353E+01 -0.2830911E-01  0.2339028E+00
 -0.1664710E+02 -0.1639590E+01 -0.2310450E+00  0.2367128E+00 -0.1453040E+01 -0.2781006E-01  0.2350735E+00
 -0.1640620E+02 -0.3263400E+01 -0.2310450E+00  0.2383099E+00 -0.1457591E+01 -0.2692032E-01  0.2367845E+00
 -0.1600730E+02 -0.4855770E+01 -0.2310450E+00  0.2401611E+00 -0.1463822E+01 -0.2564199E-01  0.2387883E+00
 -0.1545430E+02 -0.6401380E+01 -0.2310450E+00  0.2418034E+00 -0.1471503E+01 -0.2396999E-01  0.2406124E+00
 -0.1475240E+02 -0.7885340E+01 -0.2310450E+00  0.2411215E+00 -0.1479803E+01 -0.2191024E-01  0.2401240E+00
 -0.1390850E+02 -0.9293360E+01 -0.2310450E+00  0.2386720E+00 -0.1488946E+01 -0.1951357E-01  0.2378729E+00
 -0.1293060E+02 -0.1061190E+02 -0.2310450E+00  0.2362863E+00 -0.1499864E+01 -0.1674632E-01  0.2356921E+00
 -0.1182820E+02 -0.1182820E+02 -0.2310450E+00  0.2339039E+00 -0.1512599E+01 -0.1360482E-01  0.2335079E+00
 -0.1061190E+02 -0.1293060E+02 -0.2310450E+00  0.2304735E+00 -0.1526905E+01 -0.1011257E-01  0.2302515E+00
 -0.9293350E+01 -0.1390850E+02 -0.2310450E+00  0.2256398E+00 -0.1542497E+01 -0.6384584E-02  0.2255494E+00
 -0.7885340E+01 -0.1475240E+02 -0.2310450E+00  0.2201118E+00 -0.1560189E+01 -0.2334698E-02  0.2200994E+00
 -0.6401370E+01 -0.1545430E+02 -0.2310450E+00  0.2098045E+00 -0.1579982E+01  0.1927158E-02  0.2097957E+00
 -0.4855760E+01 -0.1600730E+02 -0.2310450E+00  0.1932623E+00 -0.1603546E+01  0.6328196E-02  0.1931587E+00
 -0.3263390E+01 -0.1640620E+02 -0.2310450E+00  0.1640955E+00 -0.1634774E+01  0.1049134E-01  0.1637597E+00
 -0.1639590E+01 -0.1664710E+02 -0.2310450E+00  0.1156239E+00 -0.1692268E+01  0.1401052E-01  0.1147720E+00
  0.1994750E-06 -0.1672760E+02 -0.2310450E+00  0.6269602E-01 -0.1852573E+01  0.1743340E-01  0.6022349E-01
  0.1639600E+01 -0.1664710E+02 -0.2310450E+00  0.2132576E-01 -0.3068998E+01  0.2126959E-01  0.1546767E-02
  0.3263390E+01 -0.1640620E+02 -0.2310450E+00  0.6322018E-01  0.1986510E+01  0.2553102E-01 -0.5783562E-01
  0.4855770E+01 -0.1600730E+02 -0.2310450E+00  0.1007193E+00  0.1869415E+01  0.2963161E-01 -0.9626190E-01
  0.6401380E+01 -0.1545430E+02 -0.2310450E+00  0.1233301E+00  0.1844452E+01  0.3333031E-01 -0.1187409E+00
  0.7885340E+01 -0.1475240E+02 -0.2310450E+00  0.1382571E+00  0.1839796E+01  0.3674416E-01 -0.1332850E+00
  0.9293360E+01 -0.1390850E+02 -0.2310450E+00  0.1474987E+00  0.1845022E+01  0.3994291E-01 -0.1419874E+00
  0.1061190E+02 -0.1293060E+02 -0.2310450E+00  0.1555608E+00  0.1850534E+01  0.4295087E-01 -0.1495138E+00
  0.1182820E+02 -0.1182820E+02 -0.2310450E+00  0.1615273E+00  0.1857536E+01  0.4568414E-01 -0.1549323E+00
  0.1293060E+02 -0.1061190E+02 -0.2310450E+00  0.1661897E+00  0.1865114E+01  0.4820947E-01 -0.1590436E+00
  0.1390850E+02 -0.9293360E+01 -0.2310450E+00  0.1707553E+00  0.1871361E+01  0.5055374E-01 -0.1631003E+00
  0.1475240E+02 -0.7885330E+01 -0.2310450E+00  0.1752987E+00  0.1876205E+01  0.5270942E-01 -0.1671866E+00
  0.1545430E+02 -0.6401380E+01 -0.2310450E+00  0.1778661E+00  0.1882960E+01  0.5462605E-01 -0.1692701E+00
  0.1600730E+02 -0.4855760E+01 -0.2310450E+00  0.1780035E+00  0.1892267E+01  0.5624237E-01 -0.1688847E+00
  0.1640620E+02 -0.3263390E+01 -0.2310450E+00  0.1778433E+00  0.1900535E+01  0.5758491E-01 -0.1682624E+00
  0.1664710E+02 -0.1639590E+01 -0.2310450E+00  0.1779112E+00  0.1906787E+01  0.5865812E-01 -0.1679631E+00
  0.1672760E+02  0.0000000E+00 -0.4105000E+00  0.1777998E+00  0.1910188E+01  0.5919200E-01 -0.1676576E+00
  0.1664710E+02  0.1639590E+01 -0.4105000E+00  0.1790755E+00  0.1911367E+01  0.5981575E-01 -0.1687902E+00
  0.1640620E+02  0.3263390E+01 -0.4105000E+00  0.1807887E+00  0.1910833E+01  0.6029687E-01 -0.1704372E+00
  0.1600730E+02  0.4855770E+01 -0.4105000E+00  0.1827067E+00  0.1908936E+01  0.6060973E-01 -0.1723606E+00
  0.1545430E+02  0.6401380E+01 -0.4105000E+00  0.1843893E+00  0.1906325E+01  0.6071356E-01 -0.1741071E+00
  0.1475240E+02  0.7885340E+01 -0.4105000E+00  0.1838593E+00  0.1905355E+01  0.6037064E-01 -0.1736653E+00
  0.1390850E+02  0.9293360E+01 -0.4105000E+00  0.1816064E+00  0.1905269E+01  0.5961608E-01 -0.1715425E+00
  0.1293060E+02  0.1061190E+02 -0.4105000E+00  0.1793385E+00  0.1904413E+01  0.5872662E-01 -0.1694505E+00
  0.1182820E+02  0.1182820E+02 -0.4105000E+00  0.1769881E+00  0.1902996E+01  0.5771986E-01 -0.1673117E+00
  0.1061190E+02  0.1293060E+02 -0.4105000E+00  0.1735597E+00  0.1902220E+01  0.5647447E-01 -0.1641146E+00
  0.9293360E+01  0.1390850E+02 -0.4105000E+00  0.1687276E+00  0.1901850E+01  0.5484319E-01 -0.1595657E+00
  0.7885330E+01  0.1475240E+02 -0.4105000E+00  0.1630139E+00  0.1902117E+01  0.5302707E-01 -0.1541482E+00
  0.6401380E+01  0.1545430E+02 -0.4105000E+00  0.1526546E+00  0.1907615E+01  0.5045018E-01 -0.1440771E+00
  0.4855770E+01  0.1600730E+02 -0.4105000E+00  0.1360028E+00  0.1922351E+01  0.4683363E-01 -0.1276847E+00
  0.3263390E+01  0.1640620E+02 -0.4105000E+00  0.1067131E+00  0.1964461E+01  0.4093254E-01 -0.9855059E-01
  0.1639590E+01  0.1664710E+02 -0.4105000E+00  0.5918967E-01  0.2134840E+01  0.3164324E-01 -0.5002122E-01
 -0.7311870E-06  0.1672760E+02 -0.4105000E+00  0.2217458E-01 -0.2954114E+01  0.2178602E-01  0.4132938E-02
 -0.1639590E+01  0.1664710E+02 -0.4105000E+00  0.6374660E-01 -0.1763443E+01  0.1220477E-01  0.6256735E-01
 -0.3263390E+01  0.1640620E+02 -0.4105000E+00  0.1219248E+00 -0.1597888E+01  0.3302689E-02  0.1218800E+00
 -0.4855770E+01  0.1600730E+02 -0.4105000E+00  0.1604423E+00 -0.1551760E+01 -0.3054037E-02  0.1604132E+00
 -0.6401380E+01  0.1545430E+02 -0.4105000E+00  0.1830757E+00 -0.1528394E+01 -0.7760557E-02  0.1829112E+00
 -0.7885340E+01  0.1475240E+02 -0.4105000E+00  0.1977576E+00 -0.1512076E+01 -0.1160561E-01  0.1974167E+00
 -0.9293360E+01  0.1390850E+02 -0.4105000E+00  0.2067737E+00 -0.1499487E+01 -0.1473242E-01  0.2062482E+00
 -0.1061190E+02  0.1293060E+02 -0.4105000E+00  0.2144591E+00 -0.1488641E+01 -0.1759919E-01  0.2137358E+00
 -0.1182820E+02  0.1182820E+02 -0.4105000E+00  0.2201280E+00 -0.1479116E+01 -0.2015313E-01  0.2192036E+00