 VARIABLES="X" "Y" "Z" "abs(eta) (m)" "angle(phi) (rad)" "PRE1" "PRE2"
ZONE N=   3200 ,E =    3136 ,F=FEPOINT,ET=QUADRILATERAL
  0.1672760E+02  0.0000000E+00  0.0000000E+00  0.8505867E-01 -0.1038033E+01 -0.4320264E-01  0.7327011E-01
  0.1664710E+02  0.1639590E+01  0.0000000E+00  0.8922144E-01 -0.1021234E+01 -0.4660164E-01  0.7608385E-01
  0.1640620E+02  0.3263390E+01  0.0000000E+00  0.9311443E-01 -0.1012762E+01 -0.4930592E-01  0.7898875E-01
  0.1600730E+02  0.4855770E+01  0.0000000E+00  0.9674315E-01 -0.1013393E+01 -0.5117559E-01  0.8209931E-01
  0.1545430E+02  0.6401380E+01  0.0000000E+00  0.1001253E+00 -0.1025616E+01 -0.5192223E-01  0.8561050E-01
  0.1475240E+02  0.7885340E+01  0.0000000E+00  0.1033718E+00 -0.1042726E+01 -0.5208563E-01  0.8929059E-01
  0.1390850E+02  0.9293360E+01  0.0000000E+00  0.1065597E+00 -0.1065290E+01 -0.5160161E-01  0.9323218E-01
  0.1293060E+02  0.1061190E+02  0.0000000E+00  0.1096921E+00 -0.1095451E+01 -0.5020010E-01  0.9753107E-01
  0.1182820E+02  0.1182820E+02  0.0000000E+00  0.1130208E+00 -0.1142676E+01 -0.4692188E-01  0.1028204E+00
  0.1061190E+02  0.1293060E+02  0.0000000E+00  0.1166432E+00 -0.1198965E+01 -0.4237906E-01  0.1086722E+00
  0.9293360E+01  0.1390850E+02  0.0000000E+00  0.1206790E+00 -0.1260798E+01 -0.3681393E-01  0.1149267E+00
  0.7885330E+01  0.1475240E+02  0.0000000E+00  0.1258645E+00 -0.1338454E+01 -0.2898128E-01  0.1224825E+00
  0.6401380E+01  0.1545430E+02  0.0000000E+00  0.1329876E+00 -0.1432520E+01 -0.1833052E-01  0.1317183E+00
  0.4855770E+01  0.1600730E+02  0.0000000E+00  0.1443309E+00 -0.1553083E+01 -0.2556418E-02  0.1443083E+00
  0.3263390E+01  0.1640620E+02  0.0000000E+00  0.1634136E+00 -0.1698638E+01  0.2083427E-01  0.1620800E+00
  0.1639590E+01  0.1664710E+02  0.0000000E+00  0.1891336E+00 -0.1831003E+01  0.4866042E-01  0.1827667E+00
 -0.7311870E-06  0.1672760E+02  0.0000000E+00  0.1997627E+00 -0.1872664E+01  0.5939028E-01  0.1907300E+00
 -0.1639590E+01  0.1664710E+02  0.0000000E+00  0.1891335E+00 -0.1831003E+01  0.4866033E-01  0.1827666E+00
 -0.3263390E+01  0.1640620E+02  0.0000000E+00  0.1634135E+00 -0.1698638E+01  0.2083425E-01  0.1620800E+00
 -0.4855770E+01  0.1600730E+02  0.0000000E+00  0.1443308E+00 -0.1553083E+01 -0.2556473E-02  0.1443082E+00
 -0.6401380E+01  0.1545430E+02  0.0000000E+00  0.1329876E+00 -0.1432519E+01 -0.1833058E-01  0.1317182E+00
 -0.7885340E+01  0.1475240E+02  0.0000000E+00  0.1258645E+00 -0.1338453E+01 -0.2898140E-01  0.1224825E+00
 -0.9293360E+01  0.1390850E+02  0.0000000E+00  0.1206791E+00 -0.1260798E+01 -0.3681397E-01  0.1149268E+00
 -0.1061190E+02  0.1293060E+02  0.0000000E+00  0.1166431E+00 -0.1198965E+01 -0.4237908E-01  0.1086722E+00
 -0.1182820E+02  0.1182820E+02  0.0000000E+00  0.1130206E+00 -0.1142675E+01 -0.4692192E-01  0.1028202E+00
 -0.1293060E+02  0.1061190E+02  0.0000000E+00  0.1096921E+00 -0.1095451E+01 -0.5020010E-01  0.9753107E-01
 -0.1390850E+02  0.9293360E+01  0.0000000E+00  0.1065597E+00 -0.1065289E+01 -0.5160173E-01  0.9323215E-01
 -0.1475240E+02  0.7885330E+01  0.0000000E+00  0.1033717E+00 -0.1042727E+01 -0.5208558E-01  0.8929057E-01
 -0.1545430E+02  0.6401370E+01  0.0000000E+00  0.1001253E+00 -0.1025616E+01 -0.5192222E-01  0.8561046E-01
 -0.1600730E+02  0.4855770E+01  0.0000000E+00  0.9674308E-01 -0.1013393E+01 -0.5117555E-01  0.8209924E-01
 -0.1640620E+02  0.3263390E+01  0.0000000E+00  0.9311438E-01 -0.1012762E+01 -0.4930587E-01  0.7898873E-01
 -0.1664710E+02  0.1639590E+01  0.0000000E+00  0.8922146E-01 -0.1021233E+01 -0.4660168E-01  0.7608385E-01
 -0.1672760E+02 -0.1462370E-05  0.0000000E+00  0.8505864E-01 -0.1038032E+01 -0.4320268E-01  0.7327006E-01
 -0.1664710E+02 -0.1639590E+01  0.0000000E+00  0.8085557E-01 -0.1063237E+01 -0.3929950E-01  0.7066239E-01
 -0.1640620E+02 -0.3263400E+01  0.0000000E+00  0.7648019E-01 -0.1100281E+01 -0.3467198E-01  0.6816945E-01
 -0.1600730E+02 -0.4855770E+01  0.0000000E+00  0.7185534E-01 -0.1150993E+01 -0.2928684E-01  0.6561609E-01
 -0.1545430E+02 -0.6401380E+01  0.0000000E+00  0.6680349E-01 -0.1219093E+01 -0.2301363E-01  0.6271427E-01
 -0.1475240E+02 -0.7885340E+01  0.0000000E+00  0.6210038E-01 -0.1303036E+01 -0.1643001E-01  0.5988749E-01
 -0.1390850E+02 -0.9293360E+01  0.0000000E+00  0.5783010E-01 -0.1405269E+01 -0.9528813E-02  0.5703966E-01
 -0.1293060E+02 -0.1061190E+02  0.0000000E+00  0.5390552E-01 -0.1533606E+01 -0.2004297E-02  0.5386824E-01
 -0.1182820E+02 -0.1182820E+02  0.0000000E+00  0.5001793E-01 -0.1711851E+01  0.7031906E-02  0.4952116E-01
 -0.1061190E+02 -0.1293060E+02  0.0000000E+00  0.4757069E-01 -0.1934171E+01  0.1690809E-01  0.4446445E-01
 -0.9293350E+01 -0.1390850E+02  0.0000000E+00  0.4750733E-01 -0.2184052E+01  0.2734202E-01  0.3885049E-01
 -0.7885340E+01 -0.1475240E+02  0.0000000E+00  0.5071562E-01 -0.2467311E+01  0.3961678E-01  0.3166362E-01
 -0.6401370E+01 -0.1545430E+02  0.0000000E+00  0.5871836E-01 -0.2749621E+01  0.5426503E-01  0.2243106E-01
 -0.4855760E+01 -0.1600730E+02  0.0000000E+00  0.7430226E-01 -0.3015968E+01  0.7371672E-01  0.9309669E-02
 -0.3263390E+01 -0.1640620E+02  0.0000000E+00  0.1011051E+00  0.3045888E+01  0.1006424E+00 -0.9661491E-02
 -0.1639590E+01 -0.1664710E+02  0.0000000E+00  0.1354361E+00  0.2903684E+01  0.1316212E+00 -0.3191835E-01
  0.1994750E-06 -0.1672760E+02  0.0000000E+00  0.1491082E+00  0.2866688E+01  0.1435094E+00 -0.4047618E-01
  0.1639600E+01 -0.1664710E+02  0.0000000E+00  0.1354359E+00  0.2903684E+01  0.1316211E+00 -0.3191832E-01
  0.3263390E+01 -0.1640620E+02  0.0000000E+00  0.1011048E+00  0.3045887E+01  0.1006421E+00 -0.9661498E-02
  0.4855770E+01 -0.1600730E+02  0.0000000E+00  0.7430226E-01 -0.3015967E+01  0.7371671E-01  0.9309771E-02
  0.6401380E+01 -0.1545430E+02  0.0000000E+00  0.5871824E-01 -0.2749621E+01  0.5426491E-01  0.2243102E-01
  0.7885340E+01 -0.1475240E+02  0.0000000E+00  0.5071558E-01 -0.2467311E+01  0.3961675E-01  0.3166359E-01
  0.9293360E+01 -0.1390850E+02  0.0000000E+00  0.4750734E-01 -0.2184052E+01  0.2734203E-01  0.3885049E-01
  0.1061190E+02 -0.1293060E+02  0.0000000E+00  0.4757073E-01 -0.1934169E+01  0.1690802E-01  0.4446451E-01
  0.1182820E+02 -0.1182820E+02  0.0000000E+00  0.5001800E-01 -0.1711851E+01  0.7031923E-02  0.4952123E-01
  0.1293060E+02 -0.1061190E+02  0.0000000E+00  0.5390547E-01 -0.1533604E+01 -0.2004390E-02  0.5386819E-01
  0.1390850E+02 -0.9293360E+01  0.0000000E+00  0.5783007E-01 -0.1405267E+01 -0.9528938E-02  0.5703960E-01
  0.1475240E+02 -0.7885330E+01  0.0000000E+00  0.6210039E-01 -0.1303035E+01 -0.1643007E-01  0.5988749E-01
  0.1545430E+02 -0.6401380E+01  0.0000000E+00  0.6680354E-01 -0.1219093E+01 -0.2301362E-01  0.6271432E-01
  0.1600730E+02 -0.4855760E+01  0.0000000E+00  0.7185537E-01 -0.1150992E+01 -0.2928692E-01  0.6561609E-01
  0.1640620E+02 -0.3263390E+01  0.0000000E+00  0.7648019E-01 -0.1100280E+01 -0.3467201E-01  0.6816942E-01
  0.1664710E+02 -0.1639590E+01  0.0000000E+00  0.8085562E-01 -0.1063237E+01 -0.3929953E-01  0.7066242E-01
  0.1672760E+02  0.0000000E+00 -0.2568960E-01  0.8491982E-01 -0.1038065E+01 -0.4312973E-01  0.7315191E-01
  0.1664710E+02  0.1639590E+01 -0.2568960E-01  0.8907524E-01 -0.1021266E+01 -0.4652280E-01  0.7596070E-01
  0.1640620E+02  0.3263390E+01 -0.2568960E-01  0.9296153E-01 -0.1012798E+01 -0.4922216E-01  0.7886080E-01
  0.1600730E+02  0.4855770E+01 -0.2568960E-01  0.9658407E-01 -0.1013426E+01 -0.5108878E-01  0.8196596E-01
  0.1545430E+02  0.6401380E+01 -0.2568960E-01  0.9996042E-01 -0.1025627E+01 -0.5183575E-01  0.8547011E-01
  0.1475240E+02  0.7885340E+01 -0.2568960E-01  0.1032015E+00 -0.1042743E+01 -0.5199835E-01  0.8914438E-01
  0.1390850E+02  0.9293360E+01 -0.2568960E-01  0.1063843E+00 -0.1065333E+01 -0.5151269E-01  0.9308097E-01
  0.1293060E+02  0.1061190E+02 -0.2568960E-01  0.1095122E+00 -0.1095527E+01 -0.5011038E-01  0.9737487E-01
  0.1182820E+02  0.1182820E+02 -0.2568960E-01  0.1128347E+00 -0.1142720E+01 -0.4684012E-01  0.1026532E+00
  0.1061190E+02  0.1293060E+02 -0.2568960E-01  0.1164509E+00 -0.1198994E+01 -0.4230608E-01  0.1084942E+00
  0.9293360E+01  0.1390850E+02 -0.2568960E-01  0.1204815E+00 -0.1260866E+01 -0.3674595E-01  0.1147411E+00
  0.7885330E+01  0.1475240E+02 -0.2568960E-01  0.1256588E+00 -0.1338515E+01 -0.2892647E-01  0.1222840E+00
  0.6401380E+01  0.1545430E+02 -0.2568960E-01  0.1327733E+00 -0.1432612E+01 -0.1828882E-01  0.1315076E+00
  0.4855770E+01  0.1600730E+02 -0.2568960E-01  0.1440984E+00 -0.1553158E+01 -0.2541522E-02  0.1440760E+00
  0.3263390E+01  0.1640620E+02 -0.2568960E-01  0.1631606E+00 -0.1698764E+01  0.2082233E-01  0.1618265E+00
  0.1639590E+01  0.1664710E+02 -0.2568960E-01  0.1888385E+00 -0.1831090E+01  0.4860039E-01  0.1824774E+00
 -0.7311870E-06  0.1672760E+02 -0.2568960E-01  0.1994611E+00 -0.1872780E+01  0.5932271E-01  0.1904351E+00
 -0.1639590E+01  0.1664710E+02 -0.2568960E-01  0.1888385E+00 -0.1831090E+01  0.4860033E-01  0.1824773E+00
 -0.3263390E+01  0.1640620E+02 -0.2568960E-01  0.1631607E+00 -0.1698763E+01  0.2082225E-01  0.1618266E+00
 -0.4855770E+01  0.1600730E+02 -0.2568960E-01  0.1440983E+00 -0.1553158E+01 -0.2541578E-02  0.1440759E+00
 -0.6401380E+01  0.1545430E+02 -0.2568960E-01  0.1327733E+00 -0.1432612E+01 -0.1828883E-01  0.1315077E+00
 -0.7885340E+01  0.1475240E+02 -0.2568960E-01  0.1256587E+00 -0.1338514E+01 -0.2892656E-01  0.1222839E+00
 -0.9293360E+01  0.1390850E+02 -0.2568960E-01  0.1204815E+00 -0.1260865E+01 -0.3674602E-01  0.1147411E+00
 -0.1061190E+02  0.1293060E+02 -0.2568960E-01  0.1164508E+00 -0.1198993E+01 -0.4230615E-01  0.1084941E+00
 -0.1182820E+02  0.1182820E+02 -0.2568960E-01  0.1128347E+00 -0.1142720E+01 -0.4684012E-01  0.1026532E+00
 -0.1293060E+02  0.1061190E+02 -0.2568960E-01  0.1095121E+00 -0.1095526E+01 -0.5011040E-01  0.9737475E-01
 -0.1390850E+02  0.9293360E+01 -0.2568960E-01  0.1063843E+00 -0.1065332E+01 -0.5151276E-01  0.9308092E-01
 -0.1475240E+02  0.7885330E+01 -0.2568960E-01  0.1032015E+00 -0.1042743E+01 -0.5199837E-01  0.8914433E-01
 -0.1545430E+02  0.6401370E+01 -0.2568960E-01  0.9996032E-01 -0.1025627E+01 -0.5183574E-01  0.8547001E-01
 -0.1600730E+02  0.4855770E+01 -0.2568960E-01  0.9658410E-01 -0.1013425E+01 -0.5108888E-01  0.8196594E-01
 -0.1640620E+02  0.3263390E+01 -0.2568960E-01  0.9296149E-01 -0.1012797E+01 -0.4922218E-01  0.7886073E-01
 -0.1664710E+02  0.1639590E+01 -0.2568960E-01  0.8907519E-01 -0.1021266E+01 -0.4652280E-01  0.7596064E-01
 -0.1672760E+02 -0.1462370E-05 -0.2568960E-01  0.8491979E-01 -0.1038064E+01 -0.4312981E-01  0.7315183E-01
 -0.1664710E+02 -0.1639590E+01 -0.2568960E-01  0.8072384E-01 -0.1063278E+01 -0.3923256E-01  0.7054888E-01
 -0.1640620E+02 -0.3263400E+01 -0.2568960E-01  0.7635545E-01 -0.1100330E+01 -0.3461210E-01  0.6805995E-01
 -0.1600730E+02 -0.4855770E+01 -0.2568960E-01  0.7173855E-01 -0.1151046E+01 -0.2923578E-01  0.6551098E-01
 -0.1545430E+02 -0.6401380E+01 -0.2568960E-01  0.6669701E-01 -0.1219136E+01 -0.2297427E-01  0.6261528E-01
 -0.1475240E+02 -0.7885340E+01 -0.2568960E-01  0.6200147E-01 -0.1303086E+01 -0.1640086E-01  0.5979293E-01
 -0.1390850E+02 -0.9293360E+01 -0.2568960E-01  0.5773643E-01 -0.1405357E+01 -0.9508353E-02  0.5694810E-01
 -0.1293060E+02 -0.1061190E+02 -0.2568960E-01  0.5381663E-01 -0.1533761E+01 -0.1992673E-02  0.5377972E-01
 -0.1182820E+02 -0.1182820E+02 -0.2568960E-01  0.4993889E-01 -0.1711956E+01  0.7025960E-02  0.4944218E-01
 -0.1061190E+02 -0.1293060E+02 -0.2568960E-01  0.4749735E-01 -0.1934226E+01  0.1688444E-01  0.4439498E-01
 -0.9293350E+01 -0.1390850E+02 -0.2568960E-01  0.4743489E-01 -0.2184195E+01  0.2730589E-01  0.3878733E-01
 -0.7885340E+01 -0.1475240E+02 -0.2568960E-01  0.5063950E-01 -0.2467399E+01  0.3956011E-01  0.3161260E-01
 -0.6401370E+01 -0.1545430E+02 -0.2568960E-01  0.5863341E-01 -0.2749742E+01  0.5418922E-01  0.2239209E-01
 -0.4855760E+01 -0.1600730E+02 -0.2568960E-01  0.7419234E-01 -0.3016006E+01  0.7360803E-01  0.9293092E-02
 -0.3263390E+01 -0.1640620E+02 -0.2568960E-01  0.1009642E+00  0.3045811E+01  0.1005015E+00 -0.9655748E-02
 -0.1639590E+01 -0.1664710E+02 -0.2568960E-01  0.1352373E+00  0.2903663E+01  0.1314274E+00 -0.3187427E-01
  0.1994750E-06 -0.1672760E+02 -0.2568960E-01  0.1488998E+00  0.2866643E+01  0.1433069E+00 -0.4042608E-01
  0.1639600E+01 -0.1664710E+02 -0.2568960E-01  0.1352371E+00  0.2903663E+01  0.1314271E+00 -0.3187422E-01
  0.3263390E+01 -0.1640620E+02 -0.2568960E-01  0.1009644E+00  0.3045811E+01  0.1005016E+00 -0.9655786E-02
  0.4855770E+01 -0.1600730E+02 -0.2568960E-01  0.7419225E-01 -0.3016004E+01  0.7360791E-01  0.9293266E-02
  0.6401380E+01 -0.1545430E+02 -0.2568960E-01  0.5863326E-01 -0.2749738E+01  0.5418901E-01  0.2239220E-01
  0.7885340E+01 -0.1475240E+02 -0.2568960E-01  0.5063958E-01 -0.2467399E+01  0.3956017E-01  0.3161266E-01
  0.9293360E+01 -0.1390850E+02 -0.2568960E-01  0.4743482E-01 -0.2184192E+01  0.2730574E-01  0.3878736E-01
  0.1061190E+02 -0.1293060E+02 -0.2568960E-01  0.4749740E-01 -0.1934227E+01  0.1688453E-01  0.4439500E-01
  0.1182820E+02 -0.1182820E+02 -0.2568960E-01  0.4993894E-01 -0.1711956E+01  0.7025960E-02  0.4944222E-01
  0.1293060E+02 -0.1061190E+02 -0.2568960E-01  0.5381665E-01 -0.1533762E+01 -0.1992594E-02  0.5377974E-01
  0.1390850E+02 -0.9293360E+01 -0.2568960E-01  0.5773639E-01 -0.1405360E+01 -0.9508164E-02  0.5694810E-01
  0.1475240E+02 -0.7885330E+01 -0.2568960E-01  0.6200147E-01 -0.1303087E+01 -0.1640083E-01  0.5979293E-01
  0.1545430E+02 -0.6401380E+01 -0.2568960E-01  0.6669697E-01 -0.1219135E+01 -0.2297432E-01  0.6261523E-01
  0.1600730E+02 -0.4855760E+01 -0.2568960E-01  0.7173862E-01 -0.1151048E+01 -0.2923571E-01  0.6551109E-01
  0.1640620E+02 -0.3263390E+01 -0.2568960E-01  0.7635550E-01 -0.1100330E+01 -0.3461208E-01  0.6806003E-01
  0.1664710E+02 -0.1639590E+01 -0.2568960E-01  0.8072384E-01 -0.1063278E+01 -0.3923256E-01  0.7054888E-01
  0.1672760E+02  0.0000000E+00 -0.1027320E+00  0.8450752E-01 -0.1038119E+01 -0.4291645E-01  0.7279903E-01
  0.1664710E+02  0.1639590E+01 -0.1027320E+00  0.8864104E-01 -0.1021327E+01 -0.4629141E-01  0.7559325E-01
  0.1640620E+02  0.3263390E+01 -0.1027320E+00  0.9250744E-01 -0.1012869E+01 -0.4897608E-01  0.7847910E-01
  0.1600730E+02  0.4855770E+01 -0.1027320E+00  0.9611195E-01 -0.1013494E+01 -0.5083343E-01  0.8156879E-01
  0.1545430E+02  0.6401380E+01 -0.1027320E+00  0.9947114E-01 -0.1025638E+01 -0.5158107E-01  0.8505235E-01
  0.1475240E+02  0.7885340E+01 -0.1027320E+00  0.1026961E+00 -0.1042773E+01 -0.5174107E-01  0.8870932E-01
  0.1390850E+02  0.9293360E+01 -0.1027320E+00  0.1058639E+00 -0.1065446E+01 -0.5125020E-01  0.9263139E-01
  0.1293060E+02  0.1061190E+02 -0.1027320E+00  0.1089777E+00 -0.1095737E+01 -0.4984549E-01  0.9691015E-01
  0.1182820E+02  0.1182820E+02 -0.1027320E+00  0.1122822E+00 -0.1142837E+01 -0.4659885E-01  0.1021560E+00
  0.1061190E+02  0.1293060E+02 -0.1027320E+00  0.1158792E+00 -0.1199063E+01 -0.4209092E-01  0.1079645E+00
  0.9293360E+01  0.1390850E+02 -0.1027320E+00  0.1198946E+00 -0.1261051E+01 -0.3654584E-01  0.1141890E+00
  0.7885330E+01  0.1475240E+02 -0.1027320E+00  0.1250467E+00 -0.1338678E+01 -0.2876567E-01  0.1216931E+00
  0.6401380E+01  0.1545430E+02 -0.1027320E+00  0.1321349E+00 -0.1432869E+01 -0.1816728E-01  0.1308801E+00
  0.4855770E+01  0.1600730E+02 -0.1027320E+00  0.1434057E+00 -0.1553365E+01 -0.2499630E-02  0.1433839E+00
  0.3263390E+01  0.1640620E+02 -0.1027320E+00  0.1624031E+00 -0.1699097E+01  0.2077929E-01  0.1610683E+00
  0.1639590E+01  0.1664710E+02 -0.1027320E+00  0.1879616E+00 -0.1831349E+01  0.4842159E-01  0.1816175E+00
 -0.7311870E-06  0.1672760E+02 -0.1027320E+00  0.1985602E+00 -0.1873112E+01  0.5911770E-01  0.1895554E+00
 -0.1639590E+01  0.1664710E+02 -0.1027320E+00  0.1879619E+00 -0.1831349E+01  0.4842171E-01  0.1816177E+00
 -0.3263390E+01  0.1640620E+02 -0.1027320E+00  0.1624030E+00 -0.1699097E+01  0.2077923E-01  0.1610682E+00
 -0.4855770E+01  0.1600730E+02 -0.1027320E+00  0.1434056E+00 -0.1553364E+01 -0.2499720E-02  0.1433838E+00
 -0.6401380E+01  0.1545430E+02 -0.1027320E+00  0.1321350E+00 -0.1432869E+01 -0.1816733E-01  0.1308802E+00
 -0.7885340E+01  0.1475240E+02 -0.1027320E+00  0.1250467E+00 -0.1338677E+01 -0.2876578E-01  0.1216931E+00
 -0.9293360E+01  0.1390850E+02 -0.1027320E+00  0.1198946E+00 -0.1261050E+01 -0.3654585E-01  0.1141889E+00
 -0.1061190E+02  0.1293060E+02 -0.1027320E+00  0.1158792E+00 -0.1199062E+01 -0.4209096E-01  0.1079645E+00
 -0.1182820E+02  0.1182820E+02 -0.1027320E+00  0.1122823E+00 -0.1142837E+01 -0.4659887E-01  0.1021560E+00
 -0.1293060E+02  0.1061190E+02 -0.1027320E+00  0.1089777E+00 -0.1095737E+01 -0.4984548E-01  0.9691008E-01
 -0.1390850E+02  0.9293360E+01 -0.1027320E+00  0.1058638E+00 -0.1065446E+01 -0.5125019E-01  0.9263136E-01
 -0.1475240E+02  0.7885330E+01 -0.1027320E+00  0.1026961E+00 -0.1042772E+01 -0.5174110E-01  0.8870929E-01
 -0.1545430E+02  0.6401370E+01 -0.1027320E+00  0.9947106E-01 -0.1025638E+01 -0.5158108E-01  0.8505224E-01
 -0.1600730E+02  0.4855770E+01 -0.1027320E+00  0.9611188E-01 -0.1013494E+01 -0.5083345E-01  0.8156871E-01
 -0.1640620E+02  0.3263390E+01 -0.1027320E+00  0.9250741E-01 -0.1012869E+01 -0.4897614E-01  0.7847904E-01
 -0.1664710E+02  0.1639590E+01 -0.1027320E+00  0.8864103E-01 -0.1021328E+01 -0.4629138E-01  0.7559326E-01
 -0.1672760E+02 -0.1462370E-05 -0.1027320E+00  0.8450746E-01 -0.1038120E+01 -0.4291636E-01  0.7279902E-01
 -0.1664710E+02 -0.1639590E+01 -0.1027320E+00  0.8033205E-01 -0.1063356E+01 -0.3903668E-01  0.7020951E-01
 -0.1640620E+02 -0.3263400E+01 -0.1027320E+00  0.7598455E-01 -0.1100429E+01 -0.3443721E-01  0.6773278E-01
 -0.1600730E+02 -0.4855770E+01 -0.1027320E+00  0.7139050E-01 -0.1151156E+01 -0.2908675E-01  0.6519636E-01
 -0.1545430E+02 -0.6401380E+01 -0.1027320E+00  0.6637907E-01 -0.1219204E+01 -0.2286050E-01  0.6231836E-01
 -0.1475240E+02 -0.7885340E+01 -0.1027320E+00  0.6170561E-01 -0.1303177E+01 -0.1631720E-01  0.5950909E-01
 -0.1390850E+02 -0.9293360E+01 -0.1027320E+00  0.5745569E-01 -0.1405572E+01 -0.9449933E-02  0.5667323E-01
 -0.1293060E+02 -0.1061190E+02 -0.1027320E+00  0.5355003E-01 -0.1534165E+01 -0.1961163E-02  0.5351410E-01
 -0.1182820E+02 -0.1182820E+02 -0.1027320E+00  0.4970040E-01 -0.1712214E+01  0.7005094E-02  0.4920425E-01
 -0.1061190E+02 -0.1293060E+02 -0.1027320E+00  0.4727580E-01 -0.1934353E+01  0.1681129E-01  0.4418576E-01
 -0.9293350E+01 -0.1390850E+02 -0.1027320E+00  0.4721501E-01 -0.2184593E+01  0.2719468E-01  0.3859673E-01
 -0.7885340E+01 -0.1475240E+02 -0.1027320E+00  0.5040908E-01 -0.2467650E+01  0.3938800E-01  0.3145888E-01
 -0.6401370E+01 -0.1545430E+02 -0.1027320E+00  0.5837576E-01 -0.2750104E+01  0.5395918E-01  0.2227413E-01
 -0.4855760E+01 -0.1600730E+02 -0.1027320E+00  0.7386050E-01 -0.3016137E+01  0.7328001E-01  0.9241939E-02
 -0.3263390E+01 -0.1640620E+02 -0.1027320E+00  0.1005367E+00  0.3045588E+01  0.1000737E+00 -0.9637124E-02
 -0.1639590E+01 -0.1664710E+02 -0.1027320E+00  0.1346446E+00  0.2903571E+01  0.1308485E+00 -0.3174663E-01
  0.1994750E-06 -0.1672760E+02 -0.1027320E+00  0.1482732E+00  0.2866495E+01  0.1426980E+00 -0.4027703E-01
  0.1639600E+01 -0.1664710E+02 -0.1027320E+00  0.1346442E+00  0.2903570E+01  0.1308480E+00 -0.3174656E-01
  0.3263390E+01 -0.1640620E+02 -0.1027320E+00  0.1005367E+00  0.3045589E+01  0.1000737E+00 -0.9637076E-02
  0.4855770E+01 -0.1600730E+02 -0.1027320E+00  0.7386038E-01 -0.3016135E+01  0.7327987E-01  0.9242105E-02
  0.6401380E+01 -0.1545430E+02 -0.1027320E+00  0.5837578E-01 -0.2750103E+01  0.5395917E-01  0.2227419E-01
  0.7885340E+01 -0.1475240E+02 -0.1027320E+00  0.5040910E-01 -0.2467648E+01  0.3938796E-01  0.3145895E-01
  0.9293360E+01 -0.1390850E+02 -0.1027320E+00  0.4721502E-01 -0.2184594E+01  0.2719471E-01  0.3859671E-01
  0.1061190E+02 -0.1293060E+02 -0.1027320E+00  0.4727574E-01 -0.1934355E+01  0.1681135E-01  0.4418568E-01
  0.1182820E+02 -0.1182820E+02 -0.1027320E+00  0.4970063E-01 -0.1712215E+01  0.7005197E-02  0.4920447E-01
  0.1293060E+02 -0.1061190E+02 -0.1027320E+00  0.5354999E-01 -0.1534167E+01 -0.1961045E-02  0.5351407E-01
  0.1390850E+02 -0.9293360E+01 -0.1027320E+00  0.5745565E-01 -0.1405572E+01 -0.9449947E-02  0.5667319E-01
  0.1475240E+02 -0.7885330E+01 -0.1027320E+00  0.6170567E-01 -0.1303174E+01 -0.1631739E-01  0.5950909E-01
  0.1545430E+02 -0.6401380E+01 -0.1027320E+00  0.6637926E-01 -0.1219205E+01 -0.2286050E-01  0.6231857E-01
  0.1600730E+02 -0.4855760E+01 -0.1027320E+00  0.7139058E-01 -0.1151156E+01 -0.2908679E-01  0.6519642E-01
  0.1640620E+02 -0.3263390E+01 -0.1027320E+00  0.7598456E-01 -0.1100429E+01 -0.3443724E-01  0.6773278E-01
  0.1664710E+02 -0.1639590E+01 -0.1027320E+00  0.8033203E-01 -0.1063355E+01 -0.3903677E-01  0.7020944E-01
  0.1672760E+02  0.0000000E+00 -0.2310450E+00  0.8383072E-01 -0.1038125E+01 -0.4257227E-01  0.7221628E-01
  0.1664710E+02  0.1639590E+01 -0.2310450E+00  0.8792853E-01 -0.1021352E+01 -0.4591744E-01  0.7498677E-01
  0.1640620E+02  0.3263390E+01 -0.2310450E+00  0.9176281E-01 -0.1012923E+01 -0.4857767E-01  0.7785001E-01
  0.1600730E+02  0.4855770E+01 -0.2310450E+00  0.9533781E-01 -0.1013553E+01 -0.5041924E-01  0.8091476E-01
  0.1545430E+02  0.6401380E+01 -0.2310450E+00  0.9866873E-01 -0.1025607E+01 -0.5116767E-01  0.8436462E-01
  0.1475240E+02  0.7885340E+01 -0.2310450E+00  0.1018673E+00 -0.1042778E+01 -0.5132305E-01  0.8799367E-01
  0.1390850E+02  0.9293360E+01 -0.2310450E+00  0.1050100E+00 -0.1065597E+01 -0.5082292E-01  0.9189195E-01
  0.1293060E+02  0.1061190E+02 -0.2310450E+00  0.1081009E+00 -0.1096056E+01 -0.4941373E-01  0.9614620E-01
  0.1182820E+02  0.1182820E+02 -0.2310450E+00  0.1113755E+00 -0.1143000E+01 -0.4620602E-01  0.1013386E+00
  0.1061190E+02  0.1293060E+02 -0.2310450E+00  0.1149404E+00 -0.1199145E+01 -0.4174108E-01  0.1070933E+00
  0.9293360E+01  0.1390850E+02 -0.2310450E+00  0.1189302E+00 -0.1261325E+01 -0.3622073E-01  0.1132804E+00
  0.7885330E+01  0.1475240E+02 -0.2310450E+00  0.1240405E+00 -0.1338918E+01 -0.2850525E-01  0.1207208E+00
  0.6401380E+01  0.1545430E+02 -0.2310450E+00  0.1310842E+00 -0.1433258E+01 -0.1797236E-01  0.1298463E+00
  0.4855770E+01  0.1600730E+02 -0.2310450E+00  0.1422629E+00 -0.1553654E+01 -0.2438601E-02  0.1422420E+00
  0.3263390E+01  0.1640620E+02 -0.2310450E+00  0.1611585E+00 -0.1699648E+01  0.2070805E-01  0.1598226E+00
  0.1639590E+01  0.1664710E+02 -0.2310450E+00  0.1865319E+00 -0.1831822E+01  0.4813864E-01  0.1802133E+00
 -0.7311870E-06  0.1672760E+02 -0.2310450E+00  0.1971052E+00 -0.1873758E+01  0.5880603E-01  0.1881285E+00
 -0.1639590E+01  0.1664710E+02 -0.2310450E+00  0.1865320E+00 -0.1831822E+01  0.4813860E-01  0.1802133E+00
 -0.3263390E+01  0.1640620E+02 -0.2310450E+00  0.1611584E+00 -0.1699647E+01  0.2070796E-01  0.1598225E+00
 -0.4855770E+01  0.1600730E+02 -0.2310450E+00  0.1422628E+00 -0.1553654E+01 -0.2438649E-02  0.1422419E+00
 -0.6401380E+01  0.1545430E+02 -0.2310450E+00  0.1310842E+00 -0.1433257E+01 -0.1797240E-01  0.1298463E+00
 -0.7885340E+01  0.1475240E+02 -0.2310450E+00  0.1240405E+00 -0.1338917E+01 -0.2850533E-01  0.1207207E+00
 -0.9293360E+01  0.1390850E+02 -0.2310450E+00  0.1189301E+00 -0.1261325E+01 -0.3622076E-01  0.1132803E+00
 -0.1061190E+02  0.1293060E+02 -0.2310450E+00  0.1149403E+00 -0.1199145E+01 -0.4174113E-01  0.1070932E+00
 -0.1182820E+02  0.1182820E+02 -0.2310450E+00  0.1113755E+00 -0.1143000E+01 -0.4620600E-01  0.1013385E+00
 -0.1293060E+02  0.1061190E+02 -0.2310450E+00  0.1081008E+00 -0.1096055E+01 -0.4941377E-01  0.9614606E-01
 -0.1390850E+02  0.9293360E+01 -0.2310450E+00  0.1050100E+00 -0.1065597E+01 -0.5082294E-01  0.9189197E-01
 -0.1475240E+02  0.7885330E+01 -0.2310450E+00  0.1018673E+00 -0.1042778E+01 -0.5132307E-01  0.8799370E-01
 -0.1545430E+02  0.6401370E+01 -0.2310450E+00  0.9866869E-01 -0.1025606E+01 -0.5116769E-01  0.8436456E-01
 -0.1600730E+02  0.4855770E+01 -0.2310450E+00  0.9533776E-01 -0.1013553E+01 -0.5041927E-01  0.8091468E-01
 -0.1640620E+02  0.3263390E+01 -0.2310450E+00  0.9176279E-01 -0.1012922E+01 -0.4857774E-01  0.7784993E-01
 -0.1664710E+02  0.1639590E+01 -0.2310450E+00  0.8792852E-01 -0.1021353E+01 -0.4591737E-01  0.7498679E-01
 -0.1672760E+02 -0.1462370E-05 -0.2310450E+00  0.8383068E-01 -0.1038125E+01 -0.4257230E-01  0.7221621E-01
 -0.1664710E+02 -0.1639590E+01 -0.2310450E+00  0.7968852E-01 -0.1063391E+01 -0.3872155E-01  0.6964841E-01
 -0.1640620E+02 -0.3263400E+01 -0.2310450E+00  0.7537417E-01 -0.1100491E+01 -0.3415642E-01  0.6719080E-01
 -0.1600730E+02 -0.4855770E+01 -0.2310450E+00  0.7081711E-01 -0.1151229E+01 -0.2884844E-01  0.6467481E-01
 -0.1545430E+02 -0.6401380E+01 -0.2310450E+00  0.6585437E-01 -0.1219202E+01 -0.2267992E-01  0.6182572E-01
 -0.1475240E+02 -0.7885340E+01 -0.2310450E+00  0.6121592E-01 -0.1303204E+01 -0.1618613E-01  0.5903726E-01
 -0.1390850E+02 -0.9293360E+01 -0.2310450E+00  0.5698976E-01 -0.1405800E+01 -0.9360480E-02  0.5621578E-01
 -0.1293060E+02 -0.1061190E+02 -0.2310450E+00  0.5310587E-01 -0.1534725E+01 -0.1915189E-02  0.5307132E-01
 -0.1182820E+02 -0.1182820E+02 -0.2310450E+00  0.4930216E-01 -0.1712539E+01  0.6964846E-02  0.4880772E-01
 -0.1061190E+02 -0.1293060E+02 -0.2310450E+00  0.4690386E-01 -0.1934469E+01  0.1668415E-01  0.4383618E-01
 -0.9293350E+01 -0.1390850E+02 -0.2310450E+00  0.4684563E-01 -0.2185201E+01  0.2700520E-01  0.3827836E-01
 -0.7885340E+01 -0.1475240E+02 -0.2310450E+00  0.5002157E-01 -0.2468057E+01  0.3909792E-01  0.3120112E-01
 -0.6401370E+01 -0.1545430E+02 -0.2310450E+00  0.5794305E-01 -0.2750717E+01  0.5357274E-01  0.2207622E-01
 -0.4855760E+01 -0.1600730E+02 -0.2310450E+00  0.7330342E-01 -0.3016359E+01  0.7272935E-01  0.9156102E-02
 -0.3263390E+01 -0.1640620E+02 -0.2310450E+00  0.9983008E-01  0.3045144E+01  0.9936611E-01 -0.9613569E-02
 -0.1639590E+01 -0.1664710E+02 -0.2310450E+00  0.1336816E+00  0.2903313E+01  0.1299044E+00 -0.3155303E-01
  0.1994750E-06 -0.1672760E+02 -0.2310450E+00  0.1472733E+00  0.2866112E+01  0.1417203E+00 -0.4005979E-01
  0.1639600E+01 -0.1664710E+02 -0.2310450E+00  0.1336815E+00  0.2903313E+01  0.1299044E+00 -0.3155295E-01
  0.3263390E+01 -0.1640620E+02 -0.2310450E+00  0.9983013E-01  0.3045144E+01  0.9936617E-01 -0.9613550E-02
  0.4855770E+01 -0.1600730E+02 -0.2310450E+00  0.7330344E-01 -0.3016358E+01  0.7272935E-01  0.9156174E-02
  0.6401380E+01 -0.1545430E+02 -0.2310450E+00  0.5794294E-01 -0.2750713E+01  0.5357255E-01  0.2207639E-01
  0.7885340E+01 -0.1475240E+02 -0.2310450E+00  0.5002149E-01 -0.2468056E+01  0.3909782E-01  0.3120112E-01
  0.9293360E+01 -0.1390850E+02 -0.2310450E+00  0.4684565E-01 -0.2185202E+01  0.2700527E-01  0.3827833E-01
  0.1061190E+02 -0.1293060E+02 -0.2310450E+00  0.4690379E-01 -0.1934470E+01  0.1668413E-01  0.4383612E-01
  0.1182820E+02 -0.1182820E+02 -0.2310450E+00  0.4930224E-01 -0.1712536E+01  0.6964731E-02  0.4880782E-01
  0.1293060E+02 -0.1061190E+02 -0.2310450E+00  0.5310607E-01 -0.1534723E+01 -0.1915319E-02  0.5307152E-01
  0.1390850E+02 -0.9293360E+01 -0.2310450E+00  0.5698977E-01 -0.1405801E+01 -0.9360413E-02  0.5621580E-01
  0.1475240E+02 -0.7885330E+01 -0.2310450E+00  0.6121591E-01 -0.1303202E+01 -0.1618622E-01  0.5903723E-01
  0.1545430E+02 -0.6401380E+01 -0.2310450E+00  0.6585436E-01 -0.1219200E+01 -0.2268007E-01  0.6182566E-01
  0.1600730E+02 -0.4855760E+01 -0.2310450E+00  0.7081713E-01 -0.1151228E+01 -0.2884853E-01  0.6467478E-01
  0.1640620E+02 -0.3263390E+01 -0.2310450E+00  0.7537416E-01 -0.1100491E+01 -0.3415643E-01  0.6719079E-01
  0.1664710E+02 -0.1639590E+01 -0.2310450E+00  0.7968853E-01 -0.1063392E+01 -0.3872150E-01  0.6964846E-01
  0.1672760E+02  0.0000000E+00 -0.4105000E+00  0.8289444E-01 -0.1038128E+01 -0.4209663E-01  0.7140982E-01
  0.1664710E+02  0.1639590E+01 -0.4105000E+00  0.8694357E-01 -0.1021388E+01 -0.4540043E-01  0.7414841E-01
  0.1640620E+02  0.3263390E+01 -0.4105000E+00  0.9073354E-01 -0.1012998E+01 -0.4802707E-01  0.7698035E-01
  0.1600730E+02  0.4855770E+01 -0.4105000E+00  0.9426801E-01 -0.1013634E+01 -0.4984701E-01  0.8001083E-01
  0.1545430E+02  0.6401380E+01 -0.4105000E+00  0.9756061E-01 -0.1025560E+01 -0.5059689E-01  0.8341479E-01
  0.1475240E+02  0.7885340E+01 -0.4105000E+00  0.1007228E+00 -0.1042782E+01 -0.5074608E-01  0.8700529E-01
  0.1390850E+02  0.9293360E+01 -0.4105000E+00  0.1038312E+00 -0.1065803E+01 -0.5023372E-01  0.9087075E-01
  0.1293060E+02  0.1061190E+02 -0.4105000E+00  0.1068905E+00 -0.1096494E+01 -0.4881881E-01  0.9509101E-01
  0.1182820E+02  0.1182820E+02 -0.4105000E+00  0.1101235E+00 -0.1143214E+01 -0.4566517E-01  0.1002092E+00
  0.1061190E+02  0.1293060E+02 -0.4105000E+00  0.1136440E+00 -0.1199243E+01 -0.4125998E-01  0.1058894E+00
  0.9293360E+01  0.1390850E+02 -0.4105000E+00  0.1175985E+00 -0.1261696E+01 -0.3577372E-01  0.1120252E+00
  0.7885330E+01  0.1475240E+02 -0.4105000E+00  0.1226511E+00 -0.1339240E+01 -0.2814757E-01  0.1193776E+00
  0.6401380E+01  0.1545430E+02 -0.4105000E+00  0.1296340E+00 -0.1433801E+01 -0.1770371E-01  0.1284194E+00
  0.4855770E+01  0.1600730E+02 -0.4105000E+00  0.1406850E+00 -0.1554055E+01 -0.2355113E-02  0.1406653E+00
  0.3263390E+01  0.1640620E+02 -0.4105000E+00  0.1594243E+00 -0.1700312E+01  0.2059033E-01  0.1580891E+00
  0.1639590E+01  0.1664710E+02 -0.4105000E+00  0.1844935E+00 -0.1832204E+01  0.4768066E-01  0.1782257E+00
 -0.7311870E-06  0.1672760E+02 -0.4105000E+00  0.1949970E+00 -0.1874284E+01  0.5827484E-01  0.1860857E+00
 -0.1639590E+01  0.1664710E+02 -0.4105000E+00  0.1844939E+00 -0.1832204E+01  0.4768062E-01  0.1782261E+00
 -0.3263390E+01  0.1640620E+02 -0.4105000E+00  0.1594243E+00 -0.1700312E+01  0.2059022E-01  0.1580890E+00
 -0.4855770E+01  0.1600730E+02 -0.4105000E+00  0.1406849E+00 -0.1554054E+01 -0.2355252E-02  0.1406652E+00
 -0.6401380E+01  0.1545430E+02 -0.4105000E+00  0.1296340E+00 -0.1433801E+01 -0.1770378E-01  0.1284194E+00
 -0.7885340E+01  0.1475240E+02 -0.4105000E+00  0.1226510E+00 -0.1339239E+01 -0.2814765E-01  0.1193775E+00
 -0.9293360E+01  0.1390850E+02 -0.4105000E+00  0.1175985E+00 -0.1261695E+01 -0.3577375E-01  0.1120252E+00
 -0.1061190E+02  0.1293060E+02 -0.4105000E+00  0.1136440E+00 -0.1199243E+01 -0.4126000E-01  0.1058895E+00
 -0.1182820E+02  0.1182820E+02 -0.4105000E+00  0.1101235E+00 -0.1143213E+01 -0.4566523E-01  0.1002092E+00