 VARIABLES="X" "Y" "Z" "abs(eta) (m)" "angle(phi) (rad)" "PRE1" "PRE2"
ZONE N=   3200 ,E =    3136 ,F=FEPOINT,ET=QUADRILATERAL
  0.1530690E+02  0.0000000E+00  0.0000000E+00  0.1967717E+00 -0.1484299E+01 -0.1699898E-01  0.1960361E+00
  0.1523320E+02  0.1500340E+01  0.0000000E+00  0.1954870E+00 -0.1480531E+01 -0.1762171E-01  0.1946912E+00
  0.1501280E+02  0.2986230E+01  0.0000000E+00  0.1943053E+00 -0.1478021E+01 -0.1800092E-01  0.1934697E+00
  0.1464780E+02  0.4443360E+01  0.0000000E+00  0.1926259E+00 -0.1476842E+01 -0.1807149E-01  0.1917763E+00
  0.1414170E+02  0.5857700E+01  0.0000000E+00  0.1901260E+00 -0.1477301E+01 -0.1775000E-01  0.1892956E+00
  0.1349950E+02  0.7215620E+01  0.0000000E+00  0.1867691E+00 -0.1479536E+01 -0.1702089E-01  0.1859919E+00
  0.1272720E+02  0.8504060E+01  0.0000000E+00  0.1830404E+00 -0.1483310E+01 -0.1599315E-01  0.1823404E+00
  0.1183240E+02  0.9710600E+01  0.0000000E+00  0.1798554E+00 -0.1487695E+01 -0.1492910E-01  0.1792347E+00
  0.1082360E+02  0.1082360E+02  0.0000000E+00  0.1764461E+00 -0.1493026E+01 -0.1370838E-01  0.1759127E+00
  0.9710590E+01  0.1183240E+02  0.0000000E+00  0.1710815E+00 -0.1500572E+01 -0.1200413E-01  0.1706599E+00
  0.8504060E+01  0.1272720E+02  0.0000000E+00  0.1661671E+00 -0.1508467E+01 -0.1035030E-01  0.1658444E+00
  0.7215620E+01  0.1349950E+02  0.0000000E+00  0.1591126E+00 -0.1519283E+01 -0.8192766E-02  0.1589015E+00
  0.5857700E+01  0.1414170E+02  0.0000000E+00  0.1486796E+00 -0.1534495E+01 -0.5396082E-02  0.1485816E+00
  0.4443360E+01  0.1464780E+02  0.0000000E+00  0.1335536E+00 -0.1557872E+01 -0.1726025E-02  0.1335425E+00
  0.2986230E+01  0.1501280E+02  0.0000000E+00  0.1035558E+00 -0.1620082E+01  0.5101788E-02  0.1034301E+00
  0.1500340E+01  0.1523320E+02  0.0000000E+00  0.2898112E-01 -0.3050631E+01  0.2886131E-01  0.2632551E-02
 -0.6690860E-06  0.1530690E+02  0.0000000E+00  0.6677137E-01  0.2260615E+01  0.4249310E-01 -0.5150488E-01
 -0.1500340E+01  0.1523320E+02  0.0000000E+00  0.1063381E+00  0.2088210E+01  0.5259841E-01 -0.9241855E-01
 -0.2986230E+01  0.1501280E+02  0.0000000E+00  0.1466811E+00  0.1995650E+01  0.6046008E-01 -0.1336411E+00
 -0.4443360E+01  0.1464780E+02  0.0000000E+00  0.1518319E+00  0.1973728E+01  0.5953582E-01 -0.1396725E+00
 -0.5857700E+01  0.1414170E+02  0.0000000E+00  0.1528754E+00  0.1962315E+01  0.5833608E-01 -0.1413074E+00
 -0.7215620E+01  0.1349950E+02  0.0000000E+00  0.1537836E+00  0.1953871E+01  0.5748029E-01 -0.1426373E+00
 -0.8504060E+01  0.1272720E+02  0.0000000E+00  0.1528925E+00  0.1949103E+01  0.5647042E-01 -0.1420817E+00
 -0.9710590E+01  0.1183240E+02  0.0000000E+00  0.1512443E+00  0.1945924E+01  0.5541464E-01 -0.1407268E+00
 -0.1082360E+02  0.1082360E+02  0.0000000E+00  0.1507640E+00  0.1941914E+01  0.5467563E-01 -0.1405004E+00
 -0.1183240E+02  0.9710590E+01  0.0000000E+00  0.1494952E+00  0.1938774E+01  0.5377785E-01 -0.1394875E+00
 -0.1272720E+02  0.8504060E+01  0.0000000E+00  0.1481988E+00  0.1935749E+01  0.5289289E-01 -0.1384385E+00
 -0.1349950E+02  0.7215620E+01  0.0000000E+00  0.1473415E+00  0.1932094E+01  0.5208351E-01 -0.1378290E+00
 -0.1414170E+02  0.5857690E+01  0.0000000E+00  0.1465047E+00  0.1927928E+01  0.5121636E-01 -0.1372607E+00
 -0.1464780E+02  0.4443360E+01  0.0000000E+00  0.1451876E+00  0.1923685E+01  0.5017821E-01 -0.1362409E+00
 -0.1501280E+02  0.2986230E+01  0.0000000E+00  0.1433080E+00  0.1919502E+01  0.4896575E-01 -0.1346831E+00
 -0.1523320E+02  0.1500340E+01  0.0000000E+00  0.1409695E+00  0.1915420E+01  0.4762550E-01 -0.1326809E+00
 -0.1530690E+02 -0.1338170E-05  0.0000000E+00  0.1386272E+00  0.1910371E+01  0.4617479E-01 -0.1307111E+00
 -0.1523320E+02 -0.1500340E+01  0.0000000E+00  0.1368438E+00  0.1902582E+01  0.4457435E-01 -0.1293807E+00
 -0.1501280E+02 -0.2986230E+01  0.0000000E+00  0.1351405E+00  0.1893247E+01  0.4282498E-01 -0.1281756E+00
 -0.1464780E+02 -0.4443360E+01  0.0000000E+00  0.1329610E+00  0.1883819E+01  0.4094352E-01 -0.1265000E+00
 -0.1414170E+02 -0.5857700E+01  0.0000000E+00  0.1300320E+00  0.1875492E+01  0.3900995E-01 -0.1240425E+00
 -0.1349950E+02 -0.7215620E+01  0.0000000E+00  0.1263291E+00  0.1868566E+01  0.3706348E-01 -0.1207697E+00
 -0.1272720E+02 -0.8504060E+01  0.0000000E+00  0.1222932E+00  0.1861709E+01  0.3507693E-01 -0.1171548E+00
 -0.1183240E+02 -0.9710600E+01  0.0000000E+00  0.1187379E+00  0.1851570E+01  0.3290213E-01 -0.1140883E+00
 -0.1082360E+02 -0.1082360E+02  0.0000000E+00  0.1149577E+00  0.1840259E+01  0.3060333E-01 -0.1108093E+00
 -0.9710600E+01 -0.1183240E+02  0.0000000E+00  0.1093517E+00  0.1833162E+01  0.2836214E-01 -0.1056096E+00
 -0.8504050E+01 -0.1272720E+02  0.0000000E+00  0.1041448E+00  0.1822791E+01  0.2596708E-01 -0.1008556E+00
 -0.7215620E+01 -0.1349950E+02  0.0000000E+00  0.9693430E-01  0.1817873E+01  0.2370727E-01 -0.9399056E-01
 -0.5857690E+01 -0.1414170E+02  0.0000000E+00  0.8650785E-01  0.1823250E+01  0.2160795E-01 -0.8376577E-01
 -0.4443360E+01 -0.1464780E+02  0.0000000E+00  0.7168636E-01  0.1852333E+01  0.1991678E-01 -0.6886405E-01
 -0.2986230E+01 -0.1501280E+02  0.0000000E+00  0.4378930E-01  0.2043653E+01  0.1994302E-01 -0.3898434E-01
 -0.1500340E+01 -0.1523320E+02  0.0000000E+00  0.6806917E-01 -0.2019498E+01  0.2952811E-01  0.6133109E-01
  0.1825330E-06 -0.1530690E+02  0.0000000E+00  0.1199006E+00 -0.1846336E+01  0.3262084E-01  0.1153777E+00
  0.1500340E+01 -0.1523320E+02  0.0000000E+00  0.1597805E+00 -0.1776118E+01  0.3257637E-01  0.1564244E+00
  0.2986230E+01 -0.1501280E+02  0.0000000E+00  0.2001303E+00 -0.1710600E+01  0.2788787E-01  0.1981777E+00
  0.4443360E+01 -0.1464780E+02  0.0000000E+00  0.2055520E+00 -0.1673682E+01  0.2111103E-01  0.2044651E+00
  0.5857700E+01 -0.1414170E+02  0.0000000E+00  0.2068291E+00 -0.1645300E+01  0.1539528E-01  0.2062553E+00
  0.7215620E+01 -0.1349950E+02  0.0000000E+00  0.2079623E+00 -0.1621419E+01  0.1052317E-01  0.2076959E+00
  0.8504060E+01 -0.1272720E+02  0.0000000E+00  0.2073169E+00 -0.1600106E+01  0.6075430E-02  0.2072279E+00
  0.9710600E+01 -0.1183240E+02  0.0000000E+00  0.2059511E+00 -0.1580716E+01  0.2042840E-02  0.2059410E+00
  0.1082360E+02 -0.1082360E+02  0.0000000E+00  0.2057735E+00 -0.1563672E+01 -0.1465888E-02  0.2057683E+00
  0.1183240E+02 -0.9710590E+01  0.0000000E+00  0.2048455E+00 -0.1548197E+01 -0.4628903E-02  0.2047932E+00
  0.1272720E+02 -0.8504060E+01  0.0000000E+00  0.2039064E+00 -0.1534447E+01 -0.7410150E-02  0.2037717E+00
  0.1349950E+02 -0.7215620E+01  0.0000000E+00  0.2034194E+00 -0.1522567E+01 -0.9806928E-02  0.2031828E+00
  0.1414170E+02 -0.5857700E+01  0.0000000E+00  0.2029720E+00 -0.1512322E+01 -0.1186197E-01  0.2026251E+00
  0.1464780E+02 -0.4443350E+01  0.0000000E+00  0.2020655E+00 -0.1503345E+01 -0.1361928E-01  0.2016060E+00
  0.1501280E+02 -0.2986230E+01  0.0000000E+00  0.2006077E+00 -0.1495606E+01 -0.1506951E-01  0.2000409E+00
  0.1523320E+02 -0.1500330E+01  0.0000000E+00  0.1986845E+00 -0.1489263E+01 -0.1618140E-01  0.1980244E+00
  0.1530690E+02  0.0000000E+00 -0.2568960E-01  0.1966214E+00 -0.1484301E+01 -0.1698567E-01  0.1958863E+00
  0.1523320E+02  0.1500340E+01 -0.2568960E-01  0.1953360E+00 -0.1480532E+01 -0.1760803E-01  0.1945408E+00
  0.1501280E+02  0.2986230E+01 -0.2568960E-01  0.1941541E+00 -0.1478024E+01 -0.1798621E-01  0.1933192E+00
  0.1464780E+02  0.4443360E+01 -0.2568960E-01  0.1924771E+00 -0.1476852E+01 -0.1805563E-01  0.1916284E+00
  0.1414170E+02  0.5857700E+01 -0.2568960E-01  0.1899830E+00 -0.1477309E+01 -0.1773509E-01  0.1891534E+00
  0.1349950E+02  0.7215620E+01 -0.2568960E-01  0.1866377E+00 -0.1479542E+01 -0.1700795E-01  0.1858611E+00
  0.1272720E+02  0.8504060E+01 -0.2568960E-01  0.1829177E+00 -0.1483304E+01 -0.1598347E-01  0.1822181E+00
  0.1183240E+02  0.9710600E+01 -0.2568960E-01  0.1797333E+00 -0.1487698E+01 -0.1491843E-01  0.1791131E+00
  0.1082360E+02  0.1082360E+02 -0.2568960E-01  0.1763212E+00 -0.1493031E+01 -0.1369790E-01  0.1757883E+00
  0.9710590E+01  0.1183240E+02 -0.2568960E-01  0.1709734E+00 -0.1500563E+01 -0.1199810E-01  0.1705519E+00
  0.8504060E+01  0.1272720E+02 -0.2568960E-01  0.1660562E+00 -0.1508471E+01 -0.1034283E-01  0.1657338E+00
  0.7215620E+01  0.1349950E+02 -0.2568960E-01  0.1590142E+00 -0.1519269E+01 -0.8189880E-02  0.1588032E+00
  0.5857700E+01  0.1414170E+02 -0.2568960E-01  0.1485804E+00 -0.1534492E+01 -0.5392937E-02  0.1484825E+00
  0.4443360E+01  0.1464780E+02 -0.2568960E-01  0.1334747E+00 -0.1557853E+01 -0.1727627E-02  0.1334636E+00
  0.2986230E+01  0.1501280E+02 -0.2568960E-01  0.1034876E+00 -0.1620071E+01  0.5097232E-02  0.1033620E+00
  0.1500340E+01  0.1523320E+02 -0.2568960E-01  0.2895827E-01 -0.3049630E+01  0.2883590E-01  0.2659320E-02
 -0.6690860E-06  0.1530690E+02 -0.2568960E-01  0.6672225E-01  0.2260625E+01  0.4246236E-01 -0.5146656E-01
 -0.1500340E+01  0.1523320E+02 -0.2568960E-01  0.1062859E+00  0.2088153E+01  0.5256739E-01 -0.9237618E-01
 -0.2986230E+01  0.1501280E+02 -0.2568960E-01  0.1466037E+00  0.1995623E+01  0.6042461E-01 -0.1335722E+00
 -0.4443360E+01  0.1464780E+02 -0.2568960E-01  0.1517446E+00  0.1973711E+01  0.5949926E-01 -0.1395932E+00
 -0.5857700E+01  0.1414170E+02 -0.2568960E-01  0.1527810E+00  0.1962301E+01  0.5829814E-01 -0.1412210E+00
 -0.7215620E+01  0.1349950E+02 -0.2568960E-01  0.1536855E+00  0.1953858E+01  0.5744189E-01 -0.1425471E+00
 -0.8504060E+01  0.1272720E+02 -0.2568960E-01  0.1527912E+00  0.1949097E+01  0.5643222E-01 -0.1419879E+00
 -0.9710590E+01  0.1183240E+02 -0.2568960E-01  0.1511497E+00  0.1945911E+01  0.5537808E-01 -0.1406396E+00
 -0.1082360E+02  0.1082360E+02 -0.2568960E-01  0.1506593E+00  0.1941913E+01  0.5463748E-01 -0.1404028E+00
 -0.1183240E+02  0.9710590E+01 -0.2568960E-01  0.1493949E+00  0.1938776E+01  0.5374198E-01 -0.1393938E+00
 -0.1272720E+02  0.8504060E+01 -0.2568960E-01  0.1480993E+00  0.1935749E+01  0.5285732E-01 -0.1383456E+00
 -0.1349950E+02  0.7215620E+01 -0.2568960E-01  0.1472381E+00  0.1932097E+01  0.5204739E-01 -0.1377321E+00
 -0.1414170E+02  0.5857690E+01 -0.2568960E-01  0.1463953E+00  0.1927945E+01  0.5118041E-01 -0.1371574E+00
 -0.1464780E+02  0.4443360E+01 -0.2568960E-01  0.1450741E+00  0.1923706E+01  0.5014191E-01 -0.1361333E+00
 -0.1501280E+02  0.2986230E+01 -0.2568960E-01  0.1431939E+00  0.1919517E+01  0.4892874E-01 -0.1345751E+00
 -0.1523320E+02  0.1500340E+01 -0.2568960E-01  0.1408589E+00  0.1915436E+01  0.4759030E-01 -0.1325760E+00
 -0.1530690E+02 -0.1338170E-05 -0.2568960E-01  0.1385194E+00  0.1910391E+01  0.4614153E-01 -0.1306085E+00
 -0.1523320E+02 -0.1500340E+01 -0.2568960E-01  0.1367365E+00  0.1902603E+01  0.4454220E-01 -0.1292782E+00
 -0.1501280E+02 -0.2986230E+01 -0.2568960E-01  0.1350332E+00  0.1893279E+01  0.4279507E-01 -0.1280724E+00
 -0.1464780E+02 -0.4443360E+01 -0.2568960E-01  0.1328563E+00  0.1883850E+01  0.4091509E-01 -0.1263992E+00
 -0.1414170E+02 -0.5857700E+01 -0.2568960E-01  0.1299340E+00  0.1875502E+01  0.3898185E-01 -0.1239486E+00
 -0.1349950E+02 -0.7215620E+01 -0.2568960E-01  0.1262410E+00  0.1868560E+01  0.3703699E-01 -0.1206857E+00
 -0.1272720E+02 -0.8504060E+01 -0.2568960E-01  0.1222148E+00  0.1861688E+01  0.3505198E-01 -0.1170804E+00
 -0.1183240E+02 -0.9710600E+01 -0.2568960E-01  0.1186603E+00  0.1851549E+01  0.3287827E-01 -0.1140144E+00
 -0.1082360E+02 -0.1082360E+02 -0.2568960E-01  0.1148779E+00  0.1840259E+01  0.3058212E-01 -0.1107325E+00
 -0.9710600E+01 -0.1183240E+02 -0.2568960E-01  0.1092881E+00  0.1833129E+01  0.2834213E-01 -0.1055491E+00
 -0.8504050E+01 -0.1272720E+02 -0.2568960E-01  0.1040794E+00  0.1822776E+01  0.2594920E-01 -0.1007926E+00
 -0.7215620E+01 -0.1349950E+02 -0.2568960E-01  0.9688045E-01  0.1817818E+01  0.2368893E-01 -0.9393964E-01
 -0.5857690E+01 -0.1414170E+02 -0.2568960E-01  0.8645355E-01  0.1823231E+01  0.2159279E-01 -0.8371361E-01
 -0.4443360E+01 -0.1464780E+02 -0.2568960E-01  0.7165200E-01  0.1852257E+01  0.1990199E-01 -0.6883255E-01
 -0.2986230E+01 -0.1501280E+02 -0.2568960E-01  0.4376435E-01  0.2043635E+01  0.1993096E-01 -0.3896249E-01
 -0.1500340E+01 -0.1523320E+02 -0.2568960E-01  0.6799253E-01 -0.2019673E+01  0.2950562E-01  0.6125686E-01
  0.1825330E-06 -0.1530690E+02 -0.2568960E-01  0.1198131E+00 -0.1846353E+01  0.3259903E-01  0.1152930E+00
  0.1500340E+01 -0.1523320E+02 -0.2568960E-01  0.1596898E+00 -0.1776106E+01  0.3255610E-01  0.1563360E+00
  0.2986230E+01 -0.1501280E+02 -0.2568960E-01  0.2000123E+00 -0.1710604E+01  0.2787229E-01  0.1980608E+00
  0.4443360E+01 -0.1464780E+02 -0.2568960E-01  0.2054246E+00 -0.1673692E+01  0.2109992E-01  0.2043381E+00
  0.5857700E+01 -0.1414170E+02 -0.2568960E-01  0.2066949E+00 -0.1645311E+01  0.1538756E-01  0.2061213E+00
  0.7215620E+01 -0.1349950E+02 -0.2568960E-01  0.2078235E+00 -0.1621423E+01  0.1051697E-01  0.2075573E+00
  0.8504060E+01 -0.1272720E+02 -0.2568960E-01  0.2071750E+00 -0.1600111E+01  0.6072510E-02  0.2070860E+00
  0.9710600E+01 -0.1183240E+02 -0.2568960E-01  0.2058162E+00 -0.1580727E+01  0.2043810E-02  0.2058061E+00
  0.1082360E+02 -0.1082360E+02 -0.2568960E-01  0.2056284E+00 -0.1563681E+01 -0.1463130E-02  0.2056232E+00
  0.1183240E+02 -0.9710590E+01 -0.2568960E-01  0.2047031E+00 -0.1548209E+01 -0.4623232E-02  0.2046509E+00
  0.1272720E+02 -0.8504060E+01 -0.2568960E-01  0.2037663E+00 -0.1534455E+01 -0.7403489E-02  0.2036318E+00
  0.1349950E+02 -0.7215620E+01 -0.2568960E-01  0.2032746E+00 -0.1522572E+01 -0.9798944E-02  0.2030383E+00
  0.1414170E+02 -0.5857700E+01 -0.2568960E-01  0.2028208E+00 -0.1512325E+01 -0.1185243E-01  0.2024742E+00
  0.1464780E+02 -0.4443350E+01 -0.2568960E-01  0.2019098E+00 -0.1503343E+01 -0.1360921E-01  0.2014507E+00
  0.1501280E+02 -0.2986230E+01 -0.2568960E-01  0.2004521E+00 -0.1495608E+01 -0.1505751E-01  0.1998857E+00
  0.1523320E+02 -0.1500330E+01 -0.2568960E-01  0.1985311E+00 -0.1489262E+01 -0.1616916E-01  0.1978716E+00
  0.1530690E+02  0.0000000E+00 -0.1027320E+00  0.1961824E+00 -0.1484304E+01 -0.1694704E-01  0.1954490E+00
  0.1523320E+02  0.1500340E+01 -0.1027320E+00  0.1948947E+00 -0.1480534E+01 -0.1756772E-01  0.1941013E+00
  0.1501280E+02  0.2986230E+01 -0.1027320E+00  0.1937107E+00 -0.1478037E+01 -0.1794272E-01  0.1928780E+00
  0.1464780E+02  0.4443360E+01 -0.1027320E+00  0.1920395E+00 -0.1476872E+01 -0.1801075E-01  0.1911931E+00
  0.1414170E+02  0.5857700E+01 -0.1027320E+00  0.1895654E+00 -0.1477327E+01 -0.1769275E-01  0.1887380E+00
  0.1349950E+02  0.7215620E+01 -0.1027320E+00  0.1862500E+00 -0.1479549E+01 -0.1697123E-01  0.1854751E+00
  0.1272720E+02  0.8504060E+01 -0.1027320E+00  0.1825594E+00 -0.1483296E+01 -0.1595357E-01  0.1818610E+00
  0.1183240E+02  0.9710600E+01 -0.1027320E+00  0.1793752E+00 -0.1487686E+01 -0.1489078E-01  0.1787560E+00
  0.1082360E+02  0.1082360E+02 -0.1027320E+00  0.1759530E+00 -0.1493036E+01 -0.1366834E-01  0.1754213E+00
  0.9710590E+01  0.1183240E+02 -0.1027320E+00  0.1706533E+00 -0.1500542E+01 -0.1197924E-01  0.1702323E+00
  0.8504060E+01  0.1272720E+02 -0.1027320E+00  0.1657261E+00 -0.1508463E+01 -0.1032351E-01  0.1654043E+00
  0.7215620E+01  0.1349950E+02 -0.1027320E+00  0.1587026E+00 -0.1519251E+01 -0.8176757E-02  0.1584918E+00
  0.5857700E+01  0.1414170E+02 -0.1027320E+00  0.1482873E+00 -0.1534478E+01 -0.5384395E-02  0.1481895E+00
  0.4443360E+01  0.1464780E+02 -0.1027320E+00  0.1332407E+00 -0.1557783E+01 -0.1733871E-02  0.1332294E+00
  0.2986230E+01  0.1501280E+02 -0.1027320E+00  0.1032650E+00 -0.1620101E+01  0.5089413E-02  0.1031395E+00
  0.1500340E+01  0.1523320E+02 -0.1027320E+00  0.2888577E-01 -0.3046230E+01  0.2875452E-01  0.2750454E-02
 -0.6690860E-06  0.1530690E+02 -0.1027320E+00  0.6658866E-01  0.2260598E+01  0.4237596E-01 -0.5136465E-01
 -0.1500340E+01  0.1523320E+02 -0.1027320E+00  0.1061126E+00  0.2087991E+01  0.5246665E-01 -0.9223411E-01
 -0.2986230E+01  0.1501280E+02 -0.1027320E+00  0.1463563E+00  0.1995546E+01  0.6031232E-01 -0.1333513E+00
 -0.4443360E+01  0.1464780E+02 -0.1027320E+00  0.1514838E+00  0.1973647E+01  0.5938808E-01 -0.1393570E+00
 -0.5857700E+01  0.1414170E+02 -0.1027320E+00  0.1525069E+00  0.1962252E+01  0.5818668E-01 -0.1409705E+00
 -0.7215620E+01  0.1349950E+02 -0.1027320E+00  0.1533836E+00  0.1953844E+01  0.5732691E-01 -0.1422679E+00
 -0.8504060E+01  0.1272720E+02 -0.1027320E+00  0.1524925E+00  0.1949066E+01  0.5631747E-01 -0.1417121E+00
 -0.9710590E+01  0.1183240E+02 -0.1027320E+00  0.1508715E+00  0.1945869E+01  0.5527023E-01 -0.1403830E+00
 -0.1082360E+02  0.1082360E+02 -0.1027320E+00  0.1503541E+00  0.1941897E+01  0.5452458E-01 -0.1401193E+00
 -0.1183240E+02  0.9710590E+01 -0.1027320E+00  0.1491000E+00  0.1938758E+01  0.5363335E-01 -0.1391196E+00
 -0.1272720E+02  0.8504060E+01 -0.1027320E+00  0.1478097E+00  0.1935727E+01  0.5275100E-01 -0.1380762E+00
 -0.1349950E+02  0.7215620E+01 -0.1027320E+00  0.1469366E+00  0.1932092E+01  0.5194006E-01 -0.1374503E+00
 -0.1414170E+02  0.5857690E+01 -0.1027320E+00  0.1460762E+00  0.1927960E+01  0.5107089E-01 -0.1368576E+00
 -0.1464780E+02  0.4443360E+01 -0.1027320E+00  0.1447440E+00  0.1923735E+01  0.5003172E-01 -0.1358222E+00
 -0.1501280E+02  0.2986230E+01 -0.1027320E+00  0.1428642E+00  0.1919563E+01  0.4882234E-01 -0.1342631E+00
 -0.1523320E+02  0.1500340E+01 -0.1027320E+00  0.1405373E+00  0.1915470E+01  0.4748607E-01 -0.1322717E+00
 -0.1530690E+02 -0.1338170E-05 -0.1027320E+00  0.1382085E+00  0.1910417E+01  0.4604135E-01 -0.1303142E+00
 -0.1523320E+02 -0.1500340E+01 -0.1027320E+00  0.1364256E+00  0.1902651E+01  0.4444703E-01 -0.1289822E+00
 -0.1501280E+02 -0.2986230E+01 -0.1027320E+00  0.1347212E+00  0.1893338E+01  0.4270365E-01 -0.1277741E+00
 -0.1464780E+02 -0.4443360E+01 -0.1027320E+00  0.1325519E+00  0.1883919E+01  0.4083011E-01 -0.1261068E+00
 -0.1414170E+02 -0.5857700E+01 -0.1027320E+00  0.1296491E+00  0.1875546E+01  0.3890177E-01 -0.1236751E+00
 -0.1349950E+02 -0.7215620E+01 -0.1027320E+00  0.1259864E+00  0.1868542E+01  0.3696008E-01 -0.1204430E+00
 -0.1272720E+02 -0.8504060E+01 -0.1027320E+00  0.1219872E+00  0.1861591E+01  0.3497535E-01 -0.1168657E+00
 -0.1183240E+02 -0.9710600E+01 -0.1027320E+00  0.1184346E+00  0.1851482E+01  0.3280812E-01 -0.1137997E+00
 -0.1082360E+02 -0.1082360E+02 -0.1027320E+00  0.1146443E+00  0.1840240E+01  0.3051781E-01 -0.1105078E+00
 -0.9710600E+01 -0.1183240E+02 -0.1027320E+00  0.1091005E+00  0.1832989E+01  0.2827871E-01 -0.1053719E+00
 -0.8504050E+01 -0.1272720E+02 -0.1027320E+00  0.1038836E+00  0.1822709E+01  0.2589370E-01 -0.1006048E+00
 -0.7215620E+01 -0.1349950E+02 -0.1027320E+00  0.9670329E-01  0.1817733E+01  0.2363767E-01 -0.9376986E-01
 -0.5857690E+01 -0.1414170E+02 -0.1027320E+00  0.8629646E-01  0.1823156E+01  0.2154735E-01 -0.8356310E-01
 -0.4443360E+01 -0.1464780E+02 -0.1027320E+00  0.7155097E-01  0.1852029E+01  0.1985826E-01 -0.6874002E-01
 -0.2986230E+01 -0.1501280E+02 -0.1027320E+00  0.4367603E-01  0.2043735E+01  0.1989462E-01 -0.3888187E-01
 -0.1500340E+01 -0.1523320E+02 -0.1027320E+00  0.6775372E-01 -0.2020189E+01  0.2943349E-01  0.6102653E-01
  0.1825330E-06 -0.1530690E+02 -0.1027320E+00  0.1195628E+00 -0.1846367E+01  0.3253255E-01  0.1150517E+00
  0.1500340E+01 -0.1523320E+02 -0.1027320E+00  0.1594007E+00 -0.1776056E+01  0.3248931E-01  0.1560546E+00
  0.2986230E+01 -0.1501280E+02 -0.1027320E+00  0.1996482E+00 -0.1710628E+01  0.2782630E-01  0.1976995E+00
  0.4443360E+01 -0.1464780E+02 -0.1027320E+00  0.2050453E+00 -0.1673703E+01  0.2106335E-01  0.2039605E+00
  0.5857700E+01 -0.1414170E+02 -0.1027320E+00  0.2063017E+00 -0.1645331E+01  0.1536241E-01  0.2057289E+00
  0.7215620E+01 -0.1349950E+02 -0.1027320E+00  0.2074026E+00 -0.1621440E+01  0.1049912E-01  0.2071366E+00
  0.8504060E+01 -0.1272720E+02 -0.1027320E+00  0.2067578E+00 -0.1600125E+01  0.6063125E-02  0.2066688E+00
  0.9710600E+01 -0.1183240E+02 -0.1027320E+00  0.2054176E+00 -0.1580751E+01  0.2044806E-02  0.2054074E+00
  0.1082360E+02 -0.1082360E+02 -0.1027320E+00  0.2052025E+00 -0.1563694E+01 -0.1457296E-02  0.2051974E+00
  0.1183240E+02 -0.9710590E+01 -0.1027320E+00  0.2042867E+00 -0.1548233E+01 -0.4609090E-02  0.2042347E+00
  0.1272720E+02 -0.8504060E+01 -0.1027320E+00  0.2033530E+00 -0.1534479E+01 -0.7383667E-02  0.2032189E+00
  0.1349950E+02 -0.7215620E+01 -0.1027320E+00  0.2028496E+00 -0.1522587E+01 -0.9775491E-02  0.2026139E+00
  0.1414170E+02 -0.5857700E+01 -0.1027320E+00  0.2023777E+00 -0.1512329E+01 -0.1182583E-01  0.2020319E+00
  0.1464780E+02 -0.4443350E+01 -0.1027320E+00  0.2014556E+00 -0.1503343E+01 -0.1357864E-01  0.2009974E+00
  0.1501280E+02 -0.2986230E+01 -0.1027320E+00  0.1999958E+00 -0.1495602E+01 -0.1502446E-01  0.1994307E+00
  0.1523320E+02 -0.1500330E+01 -0.1027320E+00  0.1980831E+00 -0.1489258E+01 -0.1613342E-01  0.1974250E+00
  0.1530690E+02  0.0000000E+00 -0.2310450E+00  0.1954506E+00 -0.1484294E+01 -0.1688584E-01  0.1947198E+00
  0.1523320E+02  0.1500340E+01 -0.2310450E+00  0.1941618E+00 -0.1480544E+01 -0.1749984E-01  0.1933716E+00
  0.1501280E+02  0.2986230E+01 -0.2310450E+00  0.1929717E+00 -0.1478061E+01 -0.1786972E-01  0.1921425E+00
  0.1464780E+02  0.4443360E+01 -0.2310450E+00  0.1913103E+00 -0.1476903E+01 -0.1793640E-01  0.1904676E+00
  0.1414170E+02  0.5857700E+01 -0.2310450E+00  0.1888684E+00 -0.1477355E+01 -0.1762235E-01  0.1880444E+00
  0.1349950E+02  0.7215620E+01 -0.2310450E+00  0.1856029E+00 -0.1479563E+01 -0.1690978E-01  0.1848310E+00
  0.1272720E+02  0.8504060E+01 -0.2310450E+00  0.1819580E+00 -0.1483291E+01 -0.1590204E-01  0.1812618E+00
  0.1183240E+02  0.9710600E+01 -0.2310450E+00  0.1787758E+00 -0.1487682E+01 -0.1484164E-01  0.1781587E+00
  0.1082360E+02  0.1082360E+02 -0.2310450E+00  0.1753360E+00 -0.1493044E+01 -0.1361911E-01  0.1748063E+00
  0.9710590E+01  0.1183240E+02 -0.2310450E+00  0.1701171E+00 -0.1500503E+01 -0.1194826E-01  0.1696970E+00
  0.8504060E+01  0.1272720E+02 -0.2310450E+00  0.1651736E+00 -0.1508452E+01 -0.1029098E-01  0.1648527E+00
  0.7215620E+01  0.1349950E+02 -0.2310450E+00  0.1581818E+00 -0.1519224E+01 -0.8154230E-02  0.1579714E+00
  0.5857700E+01  0.1414170E+02 -0.2310450E+00  0.1478014E+00 -0.1534452E+01 -0.5370532E-02  0.1477038E+00
  0.4443360E+01  0.1464780E+02 -0.2310450E+00  0.1328347E+00 -0.1557706E+01 -0.1738869E-02  0.1328233E+00
  0.2986230E+01  0.1501280E+02 -0.2310450E+00  0.1029281E+00 -0.1620052E+01  0.5067737E-02  0.1028033E+00
  0.1500340E+01  0.1523320E+02 -0.2310450E+00  0.2878274E-01 -0.3045042E+01  0.2864869E-01  0.2774670E-02
 -0.6690860E-06  0.1530690E+02 -0.2310450E+00  0.6636011E-01  0.2260582E+01  0.4222970E-01 -0.5118903E-01
 -0.1500340E+01  0.1523320E+02 -0.2310450E+00  0.1058126E+00  0.2087799E+01  0.5230067E-01 -0.9198336E-01
 -0.2986230E+01  0.1501280E+02 -0.2310450E+00  0.1459540E+00  0.1995410E+01  0.6012846E-01 -0.1329930E+00
 -0.4443360E+01  0.1464780E+02 -0.2310450E+00  0.1510429E+00  0.1973547E+01  0.5920128E-01 -0.1389575E+00
 -0.5857700E+01  0.1414170E+02 -0.2310450E+00  0.1520478E+00  0.1962169E+01  0.5799987E-01 -0.1405509E+00
 -0.7215620E+01  0.1349950E+02 -0.2310450E+00  0.1528789E+00  0.1953806E+01  0.5713303E-01 -0.1418019E+00
 -0.8504060E+01  0.1272720E+02 -0.2310450E+00  0.1519940E+00  0.1949030E+01  0.5612823E-01 -0.1412508E+00
 -0.9710590E+01  0.1183240E+02 -0.2310450E+00  0.1504065E+00  0.1945800E+01  0.5509029E-01 -0.1399541E+00
 -0.1082360E+02  0.1082360E+02 -0.2310450E+00  0.1498437E+00  0.1941877E+01  0.5433677E-01 -0.1396447E+00
 -0.1183240E+02  0.9710590E+01 -0.2310450E+00  0.1486069E+00  0.1938729E+01  0.5345196E-01 -0.1386611E+00
 -0.1272720E+02  0.8504060E+01 -0.2310450E+00  0.1473249E+00  0.1935698E+01  0.5257403E-01 -0.1376249E+00
 -0.1349950E+02  0.7215620E+01 -0.2310450E+00  0.1464329E+00  0.1932085E+01  0.5176103E-01 -0.1369795E+00
 -0.1414170E+02  0.5857690E+01 -0.2310450E+00  0.1455435E+00  0.1927986E+01  0.5088816E-01 -0.1363573E+00
 -0.1464780E+02  0.4443360E+01 -0.2310450E+00  0.1441941E+00  0.1923798E+01  0.4985018E-01 -0.1353029E+00
 -0.1501280E+02  0.2986230E+01 -0.2310450E+00  0.1423136E+00  0.1919640E+01  0.4864442E-01 -0.1337419E+00
 -0.1523320E+02  0.1500340E+01 -0.2310450E+00  0.1400019E+00  0.1915533E+01  0.4731348E-01 -0.1317648E+00
 -0.1530690E+02 -0.1338170E-05 -0.2310450E+00  0.1376885E+00  0.1910471E+01  0.4587509E-01 -0.1298214E+00
 -0.1523320E+02 -0.1500340E+01 -0.2310450E+00  0.1359068E+00  0.1902732E+01  0.4428839E-01 -0.1284881E+00
 -0.1501280E+02 -0.2986230E+01 -0.2310450E+00  0.1342009E+00  0.1893461E+01  0.4255449E-01 -0.1272753E+00
 -0.1464780E+02 -0.4443360E+01 -0.2310450E+00  0.1320443E+00  0.1884045E+01  0.4068952E-01 -0.1256187E+00
 -0.1414170E+02 -0.5857700E+01 -0.2310450E+00  0.1291731E+00  0.1875623E+01  0.3876840E-01 -0.1232181E+00
 -0.1349950E+02 -0.7215620E+01 -0.2310450E+00  0.1255585E+00  0.1868510E+01  0.3683079E-01 -0.1200351E+00
 -0.1272720E+02 -0.8504060E+01 -0.2310450E+00  0.1216036E+00  0.1861468E+01  0.3485106E-01 -0.1165025E+00
 -0.1183240E+02 -0.9710600E+01 -0.2310450E+00  0.1180544E+00  0.1851379E+01  0.3269108E-01 -0.1134378E+00
 -0.1082360E+02 -0.1082360E+02 -0.2310450E+00  0.1142508E+00  0.1840227E+01  0.3041156E-01 -0.1101290E+00
 -0.9710600E+01 -0.1183240E+02 -0.2310450E+00  0.1087838E+00  0.1832790E+01  0.2817576E-01 -0.1050716E+00
 -0.8504050E+01 -0.1272720E+02 -0.2310450E+00  0.1035551E+00  0.1822629E+01  0.2580378E-01 -0.1002887E+00
 -0.7215620E+01 -0.1349950E+02 -0.2310450E+00  0.9640532E-01  0.1817596E+01  0.2355203E-01 -0.9348416E-01
 -0.5857690E+01 -0.1414170E+02 -0.2310450E+00  0.8603438E-01  0.1823041E+01  0.2147234E-01 -0.8331178E-01
 -0.4443360E+01 -0.1464780E+02 -0.2310450E+00  0.7136572E-01  0.1851721E+01  0.1978575E-01 -0.6856815E-01
 -0.2986230E+01 -0.1501280E+02 -0.2310450E+00  0.4355605E-01  0.2043454E+01  0.1982907E-01 -0.3878063E-01
 -0.1500340E+01 -0.1523320E+02 -0.2310450E+00  0.6747849E-01 -0.2020483E+01  0.2933175E-01  0.6077002E-01
  0.1825330E-06 -0.1530690E+02 -0.2310450E+00  0.1191406E+00 -0.1846399E+01  0.3242141E-01  0.1146444E+00
  0.1500340E+01 -0.1523320E+02 -0.2310450E+00  0.1589057E+00 -0.1776046E+01  0.3238684E-01  0.1555703E+00
  0.2986230E+01 -0.1501280E+02 -0.2310450E+00  0.1990506E+00 -0.1710652E+01  0.2774761E-01  0.1971071E+00
  0.4443360E+01 -0.1464780E+02 -0.2310450E+00  0.2044079E+00 -0.1673721E+01  0.2100155E-01  0.2033261E+00
  0.5857700E+01 -0.1414170E+02 -0.2310450E+00  0.2056461E+00 -0.1645363E+01  0.1532019E-01  0.2050747E+00
  0.7215620E+01 -0.1349950E+02 -0.2310450E+00  0.2067010E+00 -0.1621461E+01  0.1046794E-01  0.2064358E+00
  0.8504060E+01 -0.1272720E+02 -0.2310450E+00  0.2060600E+00 -0.1600148E+01  0.6047250E-02  0.2059713E+00
  0.9710600E+01 -0.1183240E+02 -0.2310450E+00  0.2047527E+00 -0.1580785E+01  0.2045172E-02  0.2047425E+00
  0.1082360E+02 -0.1082360E+02 -0.2310450E+00  0.2044911E+00 -0.1563715E+01 -0.1447966E-02  0.2044860E+00
  0.1183240E+02 -0.9710590E+01 -0.2310450E+00  0.2035919E+00 -0.1548264E+01 -0.4587070E-02  0.2035403E+00
  0.1272720E+02 -0.8504060E+01 -0.2310450E+00  0.2026651E+00 -0.1534512E+01 -0.7351865E-02  0.2025317E+00
  0.1349950E+02 -0.7215620E+01 -0.2310450E+00  0.2021411E+00 -0.1522612E+01 -0.9736340E-02  0.2019065E+00
  0.1414170E+02 -0.5857700E+01 -0.2310450E+00  0.2016391E+00 -0.1512338E+01 -0.1178086E-01  0.2012947E+00
  0.1464780E+02 -0.4443350E+01 -0.2310450E+00  0.2006978E+00 -0.1503339E+01 -0.1352831E-01  0.2002414E+00
  0.1501280E+02 -0.2986230E+01 -0.2310450E+00  0.1992363E+00 -0.1495596E+01 -0.1496850E-01  0.1986732E+00
  0.1523320E+02 -0.1500330E+01 -0.2310450E+00  0.1973369E+00 -0.1489253E+01 -0.1607363E-01  0.1966812E+00
  0.1530690E+02  0.0000000E+00 -0.4105000E+00  0.1944412E+00 -0.1484293E+01 -0.1679882E-01  0.1937142E+00
  0.1523320E+02  0.1500340E+01 -0.4105000E+00  0.1931477E+00 -0.1480556E+01 -0.1740607E-01  0.1923618E+00
  0.1501280E+02  0.2986230E+01 -0.4105000E+00  0.1919513E+00 -0.1478092E+01 -0.1776923E-01  0.1911271E+00
  0.1464780E+02  0.4443360E+01 -0.4105000E+00  0.1903043E+00 -0.1476953E+01 -0.1783257E-01  0.1894669E+00
  0.1414170E+02  0.5857700E+01 -0.4105000E+00  0.1879058E+00 -0.1477407E+01 -0.1752283E-01  0.1870869E+00
  0.1349950E+02  0.7215620E+01 -0.4105000E+00  0.1847111E+00 -0.1479589E+01 -0.1682361E-01  0.1839433E+00
  0.1272720E+02  0.8504060E+01 -0.4105000E+00  0.1811303E+00 -0.1483273E+01 -0.1583297E-01  0.1804370E+00
  0.1183240E+02  0.9710600E+01 -0.4105000E+00  0.1779478E+00 -0.1487667E+01 -0.1477567E-01  0.1773333E+00
  0.1082360E+02  0.1082360E+02 -0.4105000E+00  0.1744822E+00 -0.1493066E+01 -0.1354893E-01  0.1739553E+00
  0.9710590E+01  0.1183240E+02 -0.4105000E+00  0.1693719E+00 -0.1500453E+01 -0.1190437E-01  0.1689530E+00
  0.8504060E+01  0.1272720E+02 -0.4105000E+00  0.1644014E+00 -0.1508457E+01 -0.1024206E-01  0.1640821E+00
  0.7215620E+01  0.1349950E+02 -0.4105000E+00  0.1574280E+00 -0.1519216E+01 -0.8116551E-02  0.1572186E+00
  0.5857700E+01  0.1414170E+02 -0.4105000E+00  0.1470965E+00 -0.1534442E+01 -0.5346355E-02  0.1469993E+00
  0.4443360E+01  0.1464780E+02 -0.4105000E+00  0.1322125E+00 -0.1557683E+01 -0.1733689E-02  0.1322011E+00
  0.2986230E+01  0.1501280E+02 -0.4105000E+00  0.1024365E+00 -0.1620043E+01  0.5042602E-02  0.1023123E+00
  0.1500340E+01  0.1523320E+02 -0.4105000E+00  0.2864460E-01 -0.3044950E+01  0.2851093E-01  0.2763996E-02
 -0.6690860E-06  0.1530690E+02 -0.4105000E+00  0.6600834E-01  0.2260764E+01  0.4201514E-01 -0.5091001E-01
 -0.1500340E+01  0.1523320E+02 -0.4105000E+00  0.1053117E+00  0.2087722E+01  0.5204605E-01 -0.9155196E-01
 -0.2986230E+01  0.1501280E+02 -0.4105000E+00  0.1453148E+00  0.1995302E+01  0.5985082E-01 -0.1324170E+00
 -0.4443360E+01  0.1464780E+02 -0.4105000E+00  0.1503695E+00  0.1973458E+01  0.5892510E-01 -0.1383431E+00
 -0.5857700E+01  0.1414170E+02 -0.4105000E+00  0.1513832E+00  0.1962072E+01  0.5773272E-01 -0.1399421E+00
 -0.7215620E+01  0.1349950E+02 -0.4105000E+00  0.1521567E+00  0.1953773E+01  0.5685845E-01 -0.1411339E+00
 -0.8504060E+01  0.1272720E+02 -0.4105000E+00  0.1512991E+00  0.1948969E+01  0.5586308E-01 -0.1406085E+00
 -0.9710590E+01  0.1183240E+02 -0.4105000E+00  0.1497640E+00  0.1945687E+01  0.5483917E-01 -0.1393626E+00
 -0.1082360E+02  0.1082360E+02 -0.4105000E+00  0.1491389E+00  0.1941836E+01  0.5407553E-01 -0.1389901E+00