 VARIABLES="X" "Y" "Z" "abs(eta) (m)" "angle(phi) (rad)" "PRE1" "PRE2"
ZONE N=   3200 ,E =    3136 ,F=FEPOINT,ET=QUADRILATERAL
  0.1672760E+02  0.0000000E+00  0.0000000E+00  0.2040886E-01  0.3075246E+01  0.2036396E-01 -0.1353067E-02
  0.1664710E+02  0.1639590E+01  0.0000000E+00  0.2233550E-01  0.2963715E+01  0.2198308E-01 -0.3952061E-02
  0.1640620E+02  0.3263390E+01  0.0000000E+00  0.2458099E-01  0.2877142E+01  0.2372647E-01 -0.6424958E-02
  0.1600730E+02  0.4855770E+01  0.0000000E+00  0.2711995E-01  0.2807562E+01  0.2562099E-01 -0.8891364E-02
  0.1545430E+02  0.6401380E+01  0.0000000E+00  0.2979179E-01  0.2750851E+01  0.2754629E-01 -0.1134691E-01
  0.1475240E+02  0.7885340E+01  0.0000000E+00  0.3247834E-01  0.2703318E+01  0.2940865E-01 -0.1378310E-01
  0.1390850E+02  0.9293360E+01  0.0000000E+00  0.3548283E-01  0.2653573E+01  0.3134068E-01 -0.1663710E-01
  0.1293060E+02  0.1061190E+02  0.0000000E+00  0.3907111E-01  0.2601190E+01  0.3350354E-01 -0.2010135E-01
  0.1182820E+02  0.1182820E+02  0.0000000E+00  0.4285151E-01  0.2561193E+01  0.3583430E-01 -0.2349797E-01
  0.1061190E+02  0.1293060E+02  0.0000000E+00  0.4677228E-01  0.2528054E+01  0.3824173E-01 -0.2692983E-01
  0.9293360E+01  0.1390850E+02  0.0000000E+00  0.5103703E-01  0.2498946E+01  0.4085577E-01 -0.3058734E-01
  0.7885330E+01  0.1475240E+02  0.0000000E+00  0.5584099E-01  0.2474182E+01  0.4385901E-01 -0.3456304E-01
  0.6401380E+01  0.1545430E+02  0.0000000E+00  0.6228899E-01  0.2445591E+01  0.4780129E-01 -0.3993688E-01
  0.4855770E+01  0.1600730E+02  0.0000000E+00  0.7016693E-01  0.2420213E+01  0.5268802E-01 -0.4633973E-01
  0.3263390E+01  0.1640620E+02  0.0000000E+00  0.8089076E-01  0.2396467E+01  0.5945494E-01 -0.5484910E-01
  0.1639590E+01  0.1664710E+02  0.0000000E+00  0.9036423E-01  0.2387779E+01  0.6588314E-01 -0.6184744E-01
 -0.7311870E-06  0.1672760E+02  0.0000000E+00  0.8722903E-01  0.2420124E+01  0.6549476E-01 -0.5761372E-01
 -0.1639590E+01  0.1664710E+02  0.0000000E+00  0.6864753E-01  0.2538768E+01  0.5654752E-01 -0.3892122E-01
 -0.3263390E+01  0.1640620E+02  0.0000000E+00  0.4264081E-01  0.2912081E+01  0.4152266E-01 -0.9700883E-02
 -0.4855770E+01  0.1600730E+02  0.0000000E+00  0.3236794E-01 -0.2709125E+01  0.2938796E-01  0.1356580E-01
 -0.6401380E+01  0.1545430E+02  0.0000000E+00  0.3559655E-01 -0.2220740E+01  0.2154094E-01  0.2833906E-01
 -0.7885340E+01  0.1475240E+02  0.0000000E+00  0.4194993E-01 -0.1956555E+01  0.1578418E-01  0.3886716E-01
 -0.9293360E+01  0.1390850E+02  0.0000000E+00  0.4854057E-01 -0.1802066E+01  0.1112616E-01  0.4724823E-01
 -0.1061190E+02  0.1293060E+02  0.0000000E+00  0.5402396E-01 -0.1710230E+01  0.7508351E-02  0.5349965E-01
 -0.1182820E+02  0.1182820E+02  0.0000000E+00  0.5912048E-01 -0.1643698E+01  0.4306167E-02  0.5896345E-01
 -0.1293060E+02  0.1061190E+02  0.0000000E+00  0.6424361E-01 -0.1590186E+01  0.1245596E-02  0.6423154E-01
 -0.1390850E+02  0.9293360E+01  0.0000000E+00  0.6801645E-01 -0.1556031E+01 -0.1004226E-02  0.6800903E-01
 -0.1475240E+02  0.7885330E+01  0.0000000E+00  0.7135721E-01 -0.1529715E+01 -0.2930635E-02  0.7129700E-01
 -0.1545430E+02  0.6401370E+01  0.0000000E+00  0.7473677E-01 -0.1507178E+01 -0.4751433E-02  0.7458559E-01
 -0.1600730E+02  0.4855770E+01  0.0000000E+00  0.7824726E-01 -0.1487408E+01 -0.6517321E-02  0.7797537E-01
 -0.1640620E+02  0.3263390E+01  0.0000000E+00  0.8179073E-01 -0.1471519E+01 -0.8106614E-02  0.8138800E-01
 -0.1664710E+02  0.1639590E+01  0.0000000E+00  0.8497030E-01 -0.1461271E+01 -0.9287804E-02  0.8446116E-01
 -0.1672760E+02 -0.1462370E-05  0.0000000E+00  0.8786819E-01 -0.1455655E+01 -0.1009493E-01  0.8728638E-01
 -0.1664710E+02 -0.1639590E+01  0.0000000E+00  0.9051178E-01 -0.1454156E+01 -0.1053342E-01  0.8989677E-01
 -0.1640620E+02 -0.3263400E+01  0.0000000E+00  0.9297850E-01 -0.1456516E+01 -0.1060246E-01  0.9237202E-01
 -0.1600730E+02 -0.4855770E+01  0.0000000E+00  0.9538231E-01 -0.1463006E+01 -0.1026140E-01  0.9482873E-01
 -0.1545430E+02 -0.6401380E+01  0.0000000E+00  0.9775336E-01 -0.1471953E+01 -0.9646551E-02  0.9727623E-01
 -0.1475240E+02 -0.7885340E+01  0.0000000E+00  0.1001073E+00 -0.1482382E+01 -0.8839395E-02  0.9971631E-01
 -0.1390850E+02 -0.9293360E+01  0.0000000E+00  0.1028707E+00 -0.1495629E+01 -0.7725273E-02  0.1025802E+00
 -0.1293060E+02 -0.1061190E+02  0.0000000E+00  0.1062198E+00 -0.1513238E+01 -0.6110480E-02  0.1060439E+00
 -0.1182820E+02 -0.1182820E+02  0.0000000E+00  0.1094786E+00 -0.1535141E+01 -0.3902718E-02  0.1094090E+00
 -0.1061190E+02 -0.1293060E+02  0.0000000E+00  0.1127972E+00 -0.1558975E+01 -0.1333420E-02  0.1127893E+00
 -0.9293350E+01 -0.1390850E+02  0.0000000E+00  0.1163813E+00 -0.1585945E+01  0.1762933E-02  0.1163679E+00
 -0.7885340E+01 -0.1475240E+02  0.0000000E+00  0.1203574E+00 -0.1618052E+01  0.5685396E-02  0.1202230E+00
 -0.6401370E+01 -0.1545430E+02  0.0000000E+00  0.1258874E+00 -0.1656978E+01  0.1083575E-01  0.1254202E+00
 -0.4855760E+01 -0.1600730E+02  0.0000000E+00  0.1327271E+00 -0.1702769E+01  0.1746554E-01  0.1315729E+00
 -0.3263390E+01 -0.1640620E+02  0.0000000E+00  0.1422518E+00 -0.1760101E+01  0.2676835E-01  0.1397105E+00
 -0.1639590E+01 -0.1664710E+02  0.0000000E+00  0.1508449E+00 -0.1816988E+01  0.3676272E-01  0.1462965E+00
  0.1994750E-06 -0.1672760E+02  0.0000000E+00  0.1475992E+00 -0.1849930E+01  0.4066698E-01  0.1418863E+00
  0.1639600E+01 -0.1664710E+02  0.0000000E+00  0.1286844E+00 -0.1860467E+01  0.3675698E-01  0.1233232E+00
  0.3263390E+01 -0.1640620E+02  0.0000000E+00  0.9832694E-01 -0.1851738E+01  0.2726221E-01  0.9447201E-01
  0.4855770E+01 -0.1600730E+02  0.0000000E+00  0.7424720E-01 -0.1841516E+01  0.1985554E-01  0.7154302E-01
  0.6401380E+01 -0.1545430E+02  0.0000000E+00  0.5917953E-01 -0.1843394E+01  0.1593314E-01  0.5699432E-01
  0.7885340E+01 -0.1475240E+02  0.0000000E+00  0.4860741E-01 -0.1857476E+01  0.1374466E-01  0.4662364E-01
  0.9293360E+01 -0.1390850E+02  0.0000000E+00  0.4036541E-01 -0.1888059E+01  0.1259269E-01  0.3835088E-01
  0.1061190E+02 -0.1293060E+02  0.0000000E+00  0.3443947E-01 -0.1935587E+01  0.1228640E-01  0.3217331E-01
  0.1182820E+02 -0.1182820E+02  0.0000000E+00  0.2947020E-01 -0.2002947E+01  0.1234283E-01  0.2676092E-01
  0.1293060E+02 -0.1061190E+02  0.0000000E+00  0.2490776E-01 -0.2097538E+01  0.1252160E-01  0.2153151E-01
  0.1390850E+02 -0.9293360E+01  0.0000000E+00  0.2218280E-01 -0.2212810E+01  0.1328327E-01  0.1776601E-01
  0.1475240E+02 -0.7885330E+01  0.0000000E+00  0.2036459E-01 -0.2350077E+01  0.1431158E-01  0.1448776E-01
  0.1545430E+02 -0.6401380E+01  0.0000000E+00  0.1905797E-01 -0.2512070E+01  0.1540472E-01  0.1122056E-01
  0.1600730E+02 -0.4855760E+01  0.0000000E+00  0.1824136E-01 -0.2695659E+01  0.1645750E-01  0.7867509E-02
  0.1640620E+02 -0.3263390E+01  0.0000000E+00  0.1812608E-01 -0.2890942E+01  0.1755967E-01  0.4495888E-02
  0.1664710E+02 -0.1639590E+01  0.0000000E+00  0.1893599E-01 -0.3064838E+01  0.1888024E-01  0.1452004E-02
  0.1672760E+02  0.0000000E+00 -0.2568960E-01  0.2039239E-01  0.3075257E+01  0.2034754E-01 -0.1351751E-02
  0.1664710E+02  0.1639590E+01 -0.2568960E-01  0.2231736E-01  0.2963725E+01  0.2196526E-01 -0.3948646E-02
  0.1640620E+02  0.3263390E+01 -0.2568960E-01  0.2456077E-01  0.2877132E+01  0.2370688E-01 -0.6419907E-02
  0.1600730E+02  0.4855770E+01 -0.2568960E-01  0.2709772E-01  0.2807542E+01  0.2559981E-01 -0.8884609E-02
  0.1545430E+02  0.6401380E+01 -0.2568960E-01  0.2976708E-01  0.2750814E+01  0.2752302E-01 -0.1133853E-01
  0.1475240E+02  0.7885340E+01 -0.2568960E-01  0.3245226E-01  0.2703262E+01  0.2938427E-01 -0.1377366E-01
  0.1390850E+02  0.9293360E+01 -0.2568960E-01  0.3545398E-01  0.2653548E+01  0.3131477E-01 -0.1662437E-01
  0.1293060E+02  0.1061190E+02 -0.2568960E-01  0.3903696E-01  0.2601219E+01  0.3347484E-01 -0.2008281E-01
  0.1182820E+02  0.1182820E+02 -0.2568960E-01  0.4281339E-01  0.2561232E+01  0.3580334E-01 -0.2347568E-01
  0.1061190E+02  0.1293060E+02 -0.2568960E-01  0.4673162E-01  0.2528087E+01  0.3820938E-01 -0.2690515E-01
  0.9293360E+01  0.1390850E+02 -0.2568960E-01  0.5099374E-01  0.2498971E+01  0.4082189E-01 -0.3056035E-01
  0.7885330E+01  0.1475240E+02 -0.2568960E-01  0.5579621E-01  0.2474183E+01  0.4382389E-01 -0.3453524E-01
  0.6401380E+01  0.1545430E+02 -0.2568960E-01  0.6223495E-01  0.2445619E+01  0.4776094E-01 -0.3990090E-01
  0.4855770E+01  0.1600730E+02 -0.2568960E-01  0.7010885E-01  0.2420236E+01  0.5264547E-01 -0.4630016E-01
  0.3263390E+01  0.1640620E+02 -0.2568960E-01  0.8082420E-01  0.2396482E+01  0.5940679E-01 -0.5480313E-01
  0.1639590E+01  0.1664710E+02 -0.2568960E-01  0.9029225E-01  0.2387780E+01  0.6583069E-01 -0.6179814E-01
 -0.7311870E-06  0.1672760E+02 -0.2568960E-01  0.8715718E-01  0.2420139E+01  0.6544163E-01 -0.5756533E-01
 -0.1639590E+01  0.1664710E+02 -0.2568960E-01  0.6858859E-01  0.2538808E+01  0.5650053E-01 -0.3888554E-01
 -0.3263390E+01  0.1640620E+02 -0.2568960E-01  0.4260575E-01  0.2912115E+01  0.4148885E-01 -0.9691477E-02
 -0.4855770E+01  0.1600730E+02 -0.2568960E-01  0.3234208E-01 -0.2709233E+01  0.2936595E-01  0.1355180E-01
 -0.6401380E+01  0.1545430E+02 -0.2568960E-01  0.3556743E-01 -0.2220744E+01  0.2152344E-01  0.2831578E-01
 -0.7885340E+01  0.1475240E+02 -0.2568960E-01  0.4191531E-01 -0.1956568E+01  0.1577163E-01  0.3883489E-01
 -0.9293360E+01  0.1390850E+02 -0.2568960E-01  0.4849590E-01 -0.1802145E+01  0.1111963E-01  0.4720388E-01
 -0.1061190E+02  0.1293060E+02 -0.2568960E-01  0.5397726E-01 -0.1710254E+01  0.7503144E-02  0.5345323E-01
 -0.1182820E+02  0.1182820E+02 -0.2568960E-01  0.5906968E-01 -0.1643712E+01  0.4303306E-02  0.5891272E-01
 -0.1293060E+02  0.1061190E+02 -0.2568960E-01  0.6418283E-01 -0.1590238E+01  0.1247747E-02  0.6417070E-01
 -0.1390850E+02  0.9293360E+01 -0.2568960E-01  0.6795463E-01 -0.1556059E+01 -0.1001464E-02  0.6794725E-01
 -0.1475240E+02  0.7885330E+01 -0.2568960E-01  0.7129560E-01 -0.1529721E+01 -0.2927694E-02  0.7123547E-01
 -0.1545430E+02  0.6401370E+01 -0.2568960E-01  0.7467353E-01 -0.1507179E+01 -0.4747357E-02  0.7452247E-01
 -0.1600730E+02  0.4855770E+01 -0.2568960E-01  0.7817995E-01 -0.1487417E+01 -0.6511007E-02  0.7790835E-01
 -0.1640620E+02  0.3263390E+01 -0.2568960E-01  0.8171783E-01 -0.1471544E+01 -0.8097406E-02  0.8131565E-01
 -0.1664710E+02  0.1639590E+01 -0.2568960E-01  0.8489331E-01 -0.1461299E+01 -0.9276995E-02  0.8438490E-01
 -0.1672760E+02 -0.1462370E-05 -0.2568960E-01  0.8778794E-01 -0.1455685E+01 -0.1008304E-01  0.8720697E-01
 -0.1664710E+02 -0.1639590E+01 -0.2568960E-01  0.9042937E-01 -0.1454183E+01 -0.1052139E-01  0.8981521E-01
 -0.1640620E+02 -0.3263400E+01 -0.2568960E-01  0.9289458E-01 -0.1456542E+01 -0.1059049E-01  0.9228892E-01
 -0.1600730E+02 -0.4855770E+01 -0.2568960E-01  0.9529681E-01 -0.1463020E+01 -0.1025082E-01  0.9474388E-01
 -0.1545430E+02 -0.6401380E+01 -0.2568960E-01  0.9766650E-01 -0.1471965E+01 -0.9636834E-02  0.9718990E-01
 -0.1475240E+02 -0.7885340E+01 -0.2568960E-01  0.1000194E+00 -0.1482399E+01 -0.8829944E-02  0.9962882E-01
 -0.1390850E+02 -0.9293360E+01 -0.2568960E-01  0.1027795E+00 -0.1495655E+01 -0.7715755E-02  0.1024895E+00
 -0.1293060E+02 -0.1061190E+02 -0.2568960E-01  0.1061228E+00 -0.1513259E+01 -0.6102621E-02  0.1059472E+00
 -0.1182820E+02 -0.1182820E+02 -0.2568960E-01  0.1093783E+00 -0.1535154E+01 -0.3897696E-02  0.1093089E+00
 -0.1061190E+02 -0.1293060E+02 -0.2568960E-01  0.1126945E+00 -0.1558995E+01 -0.1329956E-02  0.1126867E+00
 -0.9293350E+01 -0.1390850E+02 -0.2568960E-01  0.1162764E+00 -0.1585976E+01  0.1764986E-02  0.1162630E+00
 -0.7885340E+01 -0.1475240E+02 -0.2568960E-01  0.1202519E+00 -0.1618084E+01  0.5684347E-02  0.1201174E+00
 -0.6401370E+01 -0.1545430E+02 -0.2568960E-01  0.1257733E+00 -0.1657005E+01  0.1082929E-01  0.1253063E+00
 -0.4855760E+01 -0.1600730E+02 -0.2568960E-01  0.1326096E+00 -0.1702805E+01  0.1745479E-01  0.1314559E+00
 -0.3263390E+01 -0.1640620E+02 -0.2568960E-01  0.1421271E+00 -0.1760134E+01  0.2674954E-01  0.1395872E+00
 -0.1639590E+01 -0.1664710E+02 -0.2568960E-01  0.1507161E+00 -0.1817023E+01  0.3673641E-01  0.1461703E+00
  0.1994750E-06 -0.1672760E+02 -0.2568960E-01  0.1474704E+00 -0.1849967E+01  0.4063668E-01  0.1417610E+00
  0.1639600E+01 -0.1664710E+02 -0.2568960E-01  0.1285687E+00 -0.1860509E+01  0.3672912E-01  0.1232107E+00
  0.3263390E+01 -0.1640620E+02 -0.2568960E-01  0.9823786E-01 -0.1851787E+01  0.2724215E-01  0.9438508E-01
  0.4855770E+01 -0.1600730E+02 -0.2568960E-01  0.7418250E-01 -0.1841575E+01  0.1984246E-01  0.7147951E-01
  0.6401380E+01 -0.1545430E+02 -0.2568960E-01  0.5912415E-01 -0.1843451E+01  0.1592151E-01  0.5694006E-01
  0.7885340E+01 -0.1475240E+02 -0.2568960E-01  0.4856119E-01 -0.1857554E+01  0.1373521E-01  0.4657824E-01
  0.9293360E+01 -0.1390850E+02 -0.2568960E-01  0.4033135E-01 -0.1888133E+01  0.1258490E-01  0.3831759E-01
  0.1061190E+02 -0.1293060E+02 -0.2568960E-01  0.3440672E-01 -0.1935668E+01  0.1227734E-01  0.3214170E-01
  0.1182820E+02 -0.1182820E+02 -0.2568960E-01  0.2944114E-01 -0.2003013E+01  0.1233245E-01  0.2673372E-01
  0.1293060E+02 -0.1061190E+02 -0.2568960E-01  0.2488849E-01 -0.2097586E+01  0.1251297E-01  0.2151424E-01
  0.1390850E+02 -0.9293360E+01 -0.2568960E-01  0.2216402E-01 -0.2212890E+01  0.1327344E-01  0.1774991E-01
  0.1475240E+02 -0.7885330E+01 -0.2568960E-01  0.2034433E-01 -0.2350213E+01  0.1429931E-01  0.1447140E-01
  0.1545430E+02 -0.6401380E+01 -0.2568960E-01  0.1903813E-01 -0.2512264E+01  0.1539086E-01  0.1120589E-01
  0.1600730E+02 -0.4855760E+01 -0.2568960E-01  0.1822378E-01 -0.2695869E+01  0.1644330E-01  0.7856478E-02
  0.1640620E+02 -0.3263390E+01 -0.2568960E-01  0.1811069E-01 -0.2891049E+01  0.1754523E-01  0.4490199E-02
  0.1664710E+02 -0.1639590E+01 -0.2568960E-01  0.1892081E-01 -0.3064876E+01  0.1886516E-01  0.1450122E-02
  0.1672760E+02  0.0000000E+00 -0.1027320E+00  0.2034318E-01  0.3075104E+01  0.2029823E-01 -0.1351605E-02
  0.1664710E+02  0.1639590E+01 -0.1027320E+00  0.2226345E-01  0.2963583E+01  0.2191165E-01 -0.3942206E-02
  0.1640620E+02  0.3263390E+01 -0.1027320E+00  0.2450109E-01  0.2876943E+01  0.2364807E-01 -0.6408782E-02
  0.1600730E+02  0.4855770E+01 -0.1027320E+00  0.2703056E-01  0.2807314E+01  0.2553435E-01 -0.8868389E-02
  0.1545430E+02  0.6401380E+01 -0.1027320E+00  0.2969315E-01  0.2750537E+01  0.2745153E-01 -0.1131797E-01
  0.1475240E+02  0.7885340E+01 -0.1027320E+00  0.3237395E-01  0.2702935E+01  0.2930888E-01 -0.1375000E-01
  0.1390850E+02  0.9293360E+01 -0.1027320E+00  0.3536887E-01  0.2653331E+01  0.3123600E-01 -0.1659123E-01
  0.1293060E+02  0.1061190E+02 -0.1027320E+00  0.3893634E-01  0.2601211E+01  0.3338839E-01 -0.2003131E-01
  0.1182820E+02  0.1182820E+02 -0.1027320E+00  0.4270041E-01  0.2561248E+01  0.3570922E-01 -0.2341316E-01
  0.1061190E+02  0.1293060E+02 -0.1027320E+00  0.4661074E-01  0.2528101E+01  0.3811094E-01 -0.2683501E-01
  0.9293360E+01  0.1390850E+02 -0.1027320E+00  0.5086595E-01  0.2498990E+01  0.4072017E-01 -0.3048299E-01
  0.7885330E+01  0.1475240E+02 -0.1027320E+00  0.5566339E-01  0.2474138E+01  0.4371800E-01 -0.3445503E-01
  0.6401380E+01  0.1545430E+02 -0.1027320E+00  0.6207381E-01  0.2445675E+01  0.4763951E-01 -0.3979491E-01
  0.4855770E+01  0.1600730E+02 -0.1027320E+00  0.6993432E-01  0.2420274E+01  0.5251616E-01 -0.4618292E-01
  0.3263390E+01  0.1640620E+02 -0.1027320E+00  0.8062471E-01  0.2396502E+01  0.5926131E-01 -0.5466664E-01
  0.1639590E+01  0.1664710E+02 -0.1027320E+00  0.9007994E-01  0.2387757E+01  0.6567448E-01 -0.6165436E-01
 -0.7311870E-06  0.1672760E+02 -0.1027320E+00  0.8694626E-01  0.2420157E+01  0.6528430E-01 -0.5742484E-01
 -0.1639590E+01  0.1664710E+02 -0.1027320E+00  0.6841721E-01  0.2538872E+01  0.5636185E-01 -0.3878474E-01
 -0.3263390E+01  0.1640620E+02 -0.1027320E+00  0.4249614E-01  0.2912312E+01  0.4138402E-01 -0.9658406E-02
 -0.4855770E+01  0.1600730E+02 -0.1027320E+00  0.3226417E-01 -0.2709617E+01  0.2930039E-01  0.1350791E-01
 -0.6401380E+01  0.1545430E+02 -0.1027320E+00  0.3547956E-01 -0.2220785E+01  0.2147143E-01  0.2824494E-01
 -0.7885340E+01  0.1475240E+02 -0.1027320E+00  0.4181064E-01 -0.1956624E+01  0.1573443E-01  0.3873703E-01
 -0.9293360E+01  0.1390850E+02 -0.1027320E+00  0.4836166E-01 -0.1802373E+01  0.1109958E-01  0.4707068E-01
 -0.1061190E+02  0.1293060E+02 -0.1027320E+00  0.5383736E-01 -0.1710295E+01  0.7485905E-02  0.5331437E-01
 -0.1182820E+02  0.1182820E+02 -0.1027320E+00  0.5891849E-01 -0.1643710E+01  0.4292171E-02  0.5876194E-01
 -0.1293060E+02  0.1061190E+02 -0.1027320E+00  0.6400198E-01 -0.1590360E+01  0.1252004E-02  0.6398974E-01
 -0.1390850E+02  0.9293360E+01 -0.1027320E+00  0.6777117E-01 -0.1556110E+01 -0.9952573E-03  0.6776386E-01
 -0.1475240E+02  0.7885330E+01 -0.1027320E+00  0.7111364E-01 -0.1529713E+01 -0.2920789E-02  0.7105363E-01
 -0.1545430E+02  0.6401370E+01 -0.1027320E+00  0.7448693E-01 -0.1507151E+01 -0.4737546E-02  0.7433611E-01
 -0.1600730E+02  0.4855770E+01 -0.1027320E+00  0.7798160E-01 -0.1487416E+01 -0.6494620E-02  0.7771068E-01
 -0.1640620E+02  0.3263390E+01 -0.1027320E+00  0.8150331E-01 -0.1471586E+01 -0.8072706E-02  0.8110254E-01
 -0.1664710E+02  0.1639590E+01 -0.1027320E+00  0.8466658E-01 -0.1461363E+01 -0.9246877E-02  0.8416011E-01
 -0.1672760E+02 -0.1462370E-05 -0.1027320E+00  0.8755209E-01 -0.1455755E+01 -0.1004987E-01  0.8697338E-01
 -0.1664710E+02 -0.1639590E+01 -0.1027320E+00  0.9018720E-01 -0.1454255E+01 -0.1048677E-01  0.8957543E-01
 -0.1640620E+02 -0.3263400E+01 -0.1027320E+00  0.9264781E-01 -0.1456603E+01 -0.1055675E-01  0.9204440E-01
 -0.1600730E+02 -0.4855770E+01 -0.1027320E+00  0.9504553E-01 -0.1463058E+01 -0.1022025E-01  0.9449444E-01
 -0.1545430E+02 -0.6401380E+01 -0.1027320E+00  0.9741105E-01 -0.1471991E+01 -0.9609035E-02  0.9693596E-01
 -0.1475240E+02 -0.7885340E+01 -0.1027320E+00  0.9976085E-01 -0.1482441E+01 -0.8802917E-02  0.9937170E-01
 -0.1390850E+02 -0.9293360E+01 -0.1027320E+00  0.1025116E+00 -0.1495715E+01 -0.7689424E-02  0.1022228E+00
 -0.1293060E+02 -0.1061190E+02 -0.1027320E+00  0.1058371E+00 -0.1513319E+01 -0.6079892E-02  0.1056624E+00
 -0.1182820E+02 -0.1182820E+02 -0.1027320E+00  0.1090822E+00 -0.1535185E+01 -0.3883701E-02  0.1090130E+00
 -0.1061190E+02 -0.1293060E+02 -0.1027320E+00  0.1123911E+00 -0.1559047E+01 -0.1320471E-02  0.1123833E+00
 -0.9293350E+01 -0.1390850E+02 -0.1027320E+00  0.1159655E+00 -0.1586064E+01  0.1770415E-02  0.1159520E+00
 -0.7885340E+01 -0.1475240E+02 -0.1027320E+00  0.1199388E+00 -0.1618176E+01  0.5680482E-02  0.1198042E+00
 -0.6401370E+01 -0.1545430E+02 -0.1027320E+00  0.1254344E+00 -0.1657069E+01  0.1080819E-01  0.1249679E+00
 -0.4855760E+01 -0.1600730E+02 -0.1027320E+00  0.1322589E+00 -0.1702908E+01  0.1742213E-01  0.1311064E+00
 -0.3263390E+01 -0.1640620E+02 -0.1027320E+00  0.1417553E+00 -0.1760218E+01  0.2669122E-01  0.1392198E+00
 -0.1639590E+01 -0.1664710E+02 -0.1027320E+00  0.1503340E+00 -0.1817119E+01  0.3665734E-01  0.1457962E+00
  0.1994750E-06 -0.1672760E+02 -0.1027320E+00  0.1470896E+00 -0.1850073E+01  0.4054670E-01  0.1413906E+00
  0.1639600E+01 -0.1664710E+02 -0.1027320E+00  0.1282279E+00 -0.1860635E+01  0.3664726E-01  0.1228795E+00
  0.3263390E+01 -0.1640620E+02 -0.1027320E+00  0.9796677E-01 -0.1851915E+01  0.2717901E-01  0.9412114E-01
  0.4855770E+01 -0.1600730E+02 -0.1027320E+00  0.7399087E-01 -0.1841739E+01  0.1980288E-01  0.7129163E-01
  0.6401380E+01 -0.1545430E+02 -0.1027320E+00  0.5895904E-01 -0.1843609E+01  0.1588601E-01  0.5677855E-01
  0.7885340E+01 -0.1475240E+02 -0.1027320E+00  0.4842366E-01 -0.1857761E+01  0.1370594E-01  0.4644350E-01
  0.9293360E+01 -0.1390850E+02 -0.1027320E+00  0.4022917E-01 -0.1888346E+01  0.1256113E-01  0.3821785E-01
  0.1061190E+02 -0.1293060E+02 -0.1027320E+00  0.3430878E-01 -0.1935865E+01  0.1224870E-01  0.3204780E-01
  0.1182820E+02 -0.1182820E+02 -0.1027320E+00  0.2935374E-01 -0.2003220E+01  0.1230135E-01  0.2665181E-01
  0.1293060E+02 -0.1061190E+02 -0.1027320E+00  0.2483018E-01 -0.2097707E+01  0.1248624E-01  0.2146233E-01
  0.1390850E+02 -0.9293360E+01 -0.1027320E+00  0.2210580E-01 -0.2213110E+01  0.1324247E-01  0.1770038E-01
  0.1475240E+02 -0.7885330E+01 -0.1027320E+00  0.2028182E-01 -0.2350675E+01  0.1426204E-01  0.1442035E-01
  0.1545430E+02 -0.6401380E+01 -0.1027320E+00  0.1897673E-01 -0.2512942E+01  0.1534879E-01  0.1115935E-01
  0.1600730E+02 -0.4855760E+01 -0.1027320E+00  0.1816909E-01 -0.2696586E+01  0.1639956E-01  0.7821131E-02
  0.1640620E+02 -0.3263390E+01 -0.1027320E+00  0.1806354E-01 -0.2891527E+01  0.1750169E-01  0.4470136E-02
  0.1664710E+02 -0.1639590E+01 -0.1027320E+00  0.1887425E-01 -0.3065139E+01  0.1881912E-01  0.1441599E-02
  0.1672760E+02  0.0000000E+00 -0.2310450E+00  0.2026044E-01  0.3074656E+01  0.2021507E-01 -0.1355145E-02
  0.1664710E+02  0.1639590E+01 -0.2310450E+00  0.2217358E-01  0.2963142E+01  0.2182146E-01 -0.3935913E-02
  0.1640620E+02  0.3263390E+01 -0.2310450E+00  0.2440236E-01  0.2876425E+01  0.2354946E-01 -0.6395153E-02
  0.1600730E+02  0.4855770E+01 -0.2310450E+00  0.2691952E-01  0.2806724E+01  0.2542424E-01 -0.8846967E-02
  0.1545430E+02  0.6401380E+01 -0.2310450E+00  0.2957136E-01  0.2749898E+01  0.2733173E-01 -0.1128903E-01
  0.1475240E+02  0.7885340E+01 -0.2310450E+00  0.3224566E-01  0.2702236E+01  0.2918315E-01 -0.1371591E-01
  0.1390850E+02  0.9293360E+01 -0.2310450E+00  0.3522794E-01  0.2652792E+01  0.3110263E-01 -0.1654188E-01
  0.1293060E+02  0.1061190E+02 -0.2310450E+00  0.3877043E-01  0.2601029E+01  0.3324249E-01 -0.1995202E-01
  0.1182820E+02  0.1182820E+02 -0.2310450E+00  0.4251435E-01  0.2561131E+01  0.3555090E-01 -0.2331531E-01
  0.1061190E+02  0.1293060E+02 -0.2310450E+00  0.4641240E-01  0.2527988E+01  0.3794574E-01 -0.2672511E-01
  0.9293360E+01  0.1390850E+02 -0.2310450E+00  0.5065502E-01  0.2498885E+01  0.4054813E-01 -0.3036084E-01
  0.7885330E+01  0.1475240E+02 -0.2310450E+00  0.5544511E-01  0.2473918E+01  0.4353902E-01 -0.3432949E-01
  0.6401380E+01  0.1545430E+02 -0.2310450E+00  0.6181047E-01  0.2445630E+01  0.4743563E-01 -0.3962822E-01
  0.4855770E+01  0.1600730E+02 -0.2310450E+00  0.6965169E-01  0.2420199E+01  0.5230047E-01 -0.4600020E-01
  0.3263390E+01  0.1640620E+02 -0.2310450E+00  0.8029613E-01  0.2396417E+01  0.5901517E-01 -0.5444886E-01
  0.1639590E+01  0.1664710E+02 -0.2310450E+00  0.8971683E-01  0.2387664E+01  0.6540404E-01 -0.6141190E-01
 -0.7311870E-06  0.1672760E+02 -0.2310450E+00  0.8658364E-01  0.2420131E+01  0.6501058E-01 -0.5718697E-01
 -0.1639590E+01  0.1664710E+02 -0.2310450E+00  0.6811710E-01  0.2538988E+01  0.5611910E-01 -0.3860812E-01
 -0.3263390E+01  0.1640620E+02 -0.2310450E+00  0.4231188E-01  0.2912471E+01  0.4120612E-01 -0.9609967E-02
 -0.4855770E+01  0.1600730E+02 -0.2310450E+00  0.3212844E-01 -0.2710335E+01  0.2918679E-01  0.1343013E-01
 -0.6401380E+01  0.1545430E+02 -0.2310450E+00  0.3532742E-01 -0.2220853E+01  0.2138127E-01  0.2812237E-01
 -0.7885340E+01  0.1475240E+02 -0.2310450E+00  0.4163286E-01 -0.1956639E+01  0.1566812E-01  0.3857208E-01
 -0.9293360E+01  0.1390850E+02 -0.2310450E+00  0.4813571E-01 -0.1802686E+01  0.1106242E-01  0.4684730E-01
 -0.1061190E+02  0.1293060E+02 -0.2310450E+00  0.5360252E-01 -0.1710325E+01  0.7454837E-02  0.5308159E-01
 -0.1182820E+02  0.1182820E+02 -0.2310450E+00  0.5866538E-01 -0.1643675E+01  0.4271687E-02  0.5850966E-01
 -0.1293060E+02  0.1061190E+02 -0.2310450E+00  0.6370074E-01 -0.1590527E+01  0.1256787E-02  0.6368834E-01
 -0.1390850E+02  0.9293360E+01 -0.2310450E+00  0.6746623E-01 -0.1556178E+01 -0.9862146E-03  0.6745902E-01
 -0.1475240E+02  0.7885330E+01 -0.2310450E+00  0.7081144E-01 -0.1529668E+01 -0.2911543E-02  0.7075156E-01
 -0.1545430E+02  0.6401370E+01 -0.2310450E+00  0.7417763E-01 -0.1507076E+01 -0.4723414E-02  0.7402709E-01
 -0.1600730E+02  0.4855770E+01 -0.2310450E+00  0.7765339E-01 -0.1487394E+01 -0.6468953E-02  0.7738347E-01
 -0.1640620E+02  0.3263390E+01 -0.2310450E+00  0.8114896E-01 -0.1471640E+01 -0.8033214E-02  0.8075036E-01
 -0.1664710E+02  0.1639590E+01 -0.2310450E+00  0.8429267E-01 -0.1461448E+01 -0.9198865E-02  0.8378923E-01
 -0.1672760E+02 -0.1462370E-05 -0.2310450E+00  0.8716347E-01 -0.1455857E+01 -0.9996486E-02  0.8658834E-01
 -0.1664710E+02 -0.1639590E+01 -0.2310450E+00  0.8978856E-01 -0.1454352E+01 -0.1043179E-01  0.8918051E-01
 -0.1640620E+02 -0.3263400E+01 -0.2310450E+00  0.9224211E-01 -0.1456687E+01 -0.1050282E-01  0.9164222E-01
 -0.1600730E+02 -0.4855770E+01 -0.2310450E+00  0.9463266E-01 -0.1463105E+01 -0.1017147E-01  0.9408444E-01
 -0.1545430E+02 -0.6401380E+01 -0.2310450E+00  0.9699163E-01 -0.1472018E+01 -0.9565129E-02  0.9651883E-01
 -0.1475240E+02 -0.7885340E+01 -0.2310450E+00  0.9933648E-01 -0.1482495E+01 -0.8760100E-02  0.9894946E-01
 -0.1390850E+02 -0.9293360E+01 -0.2310450E+00  0.1020718E+00 -0.1495797E+01 -0.7648144E-02  0.1017849E+00
 -0.1293060E+02 -0.1061190E+02 -0.2310450E+00  0.1053678E+00 -0.1513392E+01 -0.6045293E-02  0.1051943E+00
 -0.1182820E+02 -0.1182820E+02 -0.2310450E+00  0.1085955E+00 -0.1535214E+01 -0.3863307E-02  0.1085268E+00
 -0.1061190E+02 -0.1293060E+02 -0.2310450E+00  0.1118926E+00 -0.1559102E+01 -0.1308447E-02  0.1118849E+00
 -0.9293350E+01 -0.1390850E+02 -0.2310450E+00  0.1154553E+00 -0.1586172E+01  0.1775134E-02  0.1154416E+00
 -0.7885340E+01 -0.1475240E+02 -0.2310450E+00  0.1194254E+00 -0.1618293E+01  0.5670133E-02  0.1192907E+00
 -0.6401370E+01 -0.1545430E+02 -0.2310450E+00  0.1248794E+00 -0.1657149E+01  0.1077029E-01  0.1244140E+00
 -0.4855760E+01 -0.1600730E+02 -0.2310450E+00  0.1316870E+00 -0.1703041E+01  0.1736420E-01  0.1305371E+00
 -0.3263390E+01 -0.1640620E+02 -0.2310450E+00  0.1411444E+00 -0.1760317E+01  0.2658992E-01  0.1386171E+00
 -0.1639590E+01 -0.1664710E+02 -0.2310450E+00  0.1496925E+00 -0.1817213E+01  0.3651451E-01  0.1451707E+00
  0.1994750E-06 -0.1672760E+02 -0.2310450E+00  0.1464492E+00 -0.1850182E+01  0.4038557E-01  0.1407706E+00
  0.1639600E+01 -0.1664710E+02 -0.2310450E+00  0.1276492E+00 -0.1860767E+01  0.3649801E-01  0.1223201E+00
  0.3263390E+01 -0.1640620E+02 -0.2310450E+00  0.9752081E-01 -0.1852069E+01  0.2706970E-01  0.9368853E-01
  0.4855770E+01 -0.1600730E+02 -0.2310450E+00  0.7367545E-01 -0.1841952E+01  0.1973364E-01  0.7098348E-01
  0.6401380E+01 -0.1545430E+02 -0.2310450E+00  0.5868845E-01 -0.1843805E+01  0.1582415E-01  0.5651486E-01
  0.7885340E+01 -0.1475240E+02 -0.2310450E+00  0.4819574E-01 -0.1858033E+01  0.1365399E-01  0.4622119E-01
  0.9293360E+01 -0.1390850E+02 -0.2310450E+00  0.4005982E-01 -0.1888608E+01  0.1251824E-01  0.3805368E-01
  0.1061190E+02 -0.1293060E+02 -0.2310450E+00  0.3414602E-01 -0.1936105E+01  0.1219823E-01  0.3189285E-01
  0.1182820E+02 -0.1182820E+02 -0.2310450E+00  0.2920816E-01 -0.2003478E+01  0.1224719E-01  0.2651647E-01
  0.1293060E+02 -0.1061190E+02 -0.2310450E+00  0.2473194E-01 -0.2097835E+01  0.1243957E-01  0.2137583E-01
  0.1390850E+02 -0.9293360E+01 -0.2310450E+00  0.2200719E-01 -0.2213425E+01  0.1318895E-01  0.1761726E-01
  0.1475240E+02 -0.7885330E+01 -0.2310450E+00  0.2017611E-01 -0.2351418E+01  0.1419836E-01  0.1433464E-01
  0.1545430E+02 -0.6401380E+01 -0.2310450E+00  0.1887255E-01 -0.2514092E+01  0.1527729E-01  0.1108051E-01
  0.1600730E+02 -0.4855760E+01 -0.2310450E+00  0.1807661E-01 -0.2697871E+01  0.1632607E-01  0.7760356E-02
  0.1640620E+02 -0.3263390E+01 -0.2310450E+00  0.1798253E-01 -0.2892457E+01  0.1742734E-01  0.4433894E-02
  0.1664710E+02 -0.1639590E+01 -0.2310450E+00  0.1879557E-01 -0.3065760E+01  0.1874156E-01  0.1423954E-02
  0.1672760E+02  0.0000000E+00 -0.4105000E+00  0.2014619E-01  0.3073826E+01  0.2009995E-01 -0.1364187E-02
  0.1664710E+02  0.1639590E+01 -0.4105000E+00  0.2204934E-01  0.2962306E+01  0.2169592E-01 -0.3931996E-02
  0.1640620E+02  0.3263390E+01 -0.4105000E+00  0.2426601E-01  0.2875479E+01  0.2341186E-01 -0.6381556E-02
  0.1600730E+02  0.4855770E+01 -0.4105000E+00  0.2676705E-01  0.2805701E+01  0.2527122E-01 -0.8822731E-02
  0.1545430E+02  0.6401380E+01 -0.4105000E+00  0.2940392E-01  0.2748795E+01  0.2716457E-01 -0.1125508E-01
  0.1475240E+02  0.7885340E+01 -0.4105000E+00  0.3206885E-01  0.2701033E+01  0.2900670E-01 -0.1367562E-01
  0.1390850E+02  0.9293360E+01 -0.4105000E+00  0.3503366E-01  0.2651838E+01  0.3091540E-01 -0.1648015E-01
  0.1293060E+02  0.1061190E+02 -0.4105000E+00  0.3854213E-01  0.2600573E+01  0.3303770E-01 -0.1984959E-01
  0.1182820E+02  0.1182820E+02 -0.4105000E+00  0.4225763E-01  0.2560741E+01  0.3532720E-01 -0.2318828E-01
  0.1061190E+02  0.1293060E+02 -0.4105000E+00  0.4613737E-01  0.2527581E+01  0.3771008E-01 -0.2658208E-01
  0.9293360E+01  0.1390850E+02 -0.4105000E+00  0.5036341E-01  0.2498474E+01  0.4030227E-01 -0.3020264E-01
  0.7885330E+01  0.1475240E+02 -0.4105000E+00  0.5514342E-01  0.2473317E+01  0.4328159E-01 -0.3416871E-01
  0.6401380E+01  0.1545430E+02 -0.4105000E+00  0.6145053E-01  0.2445246E+01  0.4714425E-01 -0.3941558E-01
  0.4855770E+01  0.1600730E+02 -0.4105000E+00  0.6926450E-01  0.2419778E+01  0.5199050E-01 -0.4576635E-01
  0.3263390E+01  0.1640620E+02 -0.4105000E+00  0.7983891E-01  0.2396039E+01  0.5865864E-01 -0.5416101E-01
  0.1639590E+01  0.1664710E+02 -0.4105000E+00  0.8919173E-01  0.2387348E+01  0.6500195E-01 -0.6107301E-01
 -0.7311870E-06  0.1672760E+02 -0.4105000E+00  0.8604345E-01  0.2419975E+01  0.6459612E-01 -0.5684029E-01
 -0.1639590E+01  0.1664710E+02 -0.4105000E+00  0.6767501E-01  0.2538988E+01  0.5575487E-01 -0.3835754E-01
 -0.3263390E+01  0.1640620E+02 -0.4105000E+00  0.4204524E-01  0.2912279E+01  0.4094460E-01 -0.9557272E-02
 -0.4855770E+01  0.1600730E+02 -0.4105000E+00  0.3192377E-01 -0.2711612E+01  0.2901787E-01  0.1330752E-01
 -0.6401380E+01  0.1545430E+02 -0.4105000E+00  0.3510122E-01 -0.2220851E+01  0.2124431E-01  0.2794236E-01
 -0.7885340E+01  0.1475240E+02 -0.4105000E+00  0.4137373E-01 -0.1956531E+01  0.1556645E-01  0.3833368E-01
 -0.9293360E+01  0.1390850E+02 -0.4105000E+00  0.4781196E-01 -0.1803013E+01  0.1100321E-01  0.4652862E-01
 -0.1061190E+02  0.1293060E+02 -0.4105000E+00  0.5326809E-01 -0.1710273E+01  0.7405583E-02  0.5275080E-01
 -0.1182820E+02  0.1182820E+02 -0.4105000E+00  0.5830652E-01 -0.1643560E+01  0.4238835E-02  0.5815223E-01