 VARIABLES="X" "Y" "Z" "abs(eta) (m)" "angle(phi) (rad)" "PRE1" "PRE2"
ZONE N=   3200 ,E =    3136 ,F=FEPOINT,ET=QUADRILATERAL
  0.1672760E+02  0.0000000E+00  0.0000000E+00  0.2417240E+00 -0.1173876E+01 -0.9344567E-01  0.2229314E+00
  0.1664710E+02  0.1639590E+01  0.0000000E+00  0.2395488E+00 -0.1169205E+01 -0.9363560E-01  0.2204904E+00
  0.1640620E+02  0.3263390E+01  0.0000000E+00  0.2369597E+00 -0.1167245E+01 -0.9305091E-01  0.2179253E+00
  0.1600730E+02  0.4855770E+01  0.0000000E+00  0.2329999E+00 -0.1168034E+01 -0.9132693E-01  0.2143556E+00
  0.1545430E+02  0.6401380E+01  0.0000000E+00  0.2273799E+00 -0.1171733E+01 -0.8834969E-01  0.2095137E+00
  0.1475240E+02  0.7885340E+01  0.0000000E+00  0.2200893E+00 -0.1178701E+01 -0.8410177E-01  0.2033868E+00
  0.1390850E+02  0.9293360E+01  0.0000000E+00  0.2123293E+00 -0.1188926E+01 -0.7912598E-01  0.1970350E+00
  0.1293060E+02  0.1061190E+02  0.0000000E+00  0.2047931E+00 -0.1201878E+01 -0.7384981E-01  0.1910142E+00
  0.1182820E+02  0.1182820E+02  0.0000000E+00  0.1962879E+00 -0.1218072E+01 -0.6780876E-01  0.1842035E+00
  0.1061190E+02  0.1293060E+02  0.0000000E+00  0.1853552E+00 -0.1238975E+01 -0.6038230E-01  0.1752442E+00
  0.9293360E+01  0.1390850E+02  0.0000000E+00  0.1730154E+00 -0.1264911E+01 -0.5210150E-01  0.1649841E+00
  0.7885330E+01  0.1475240E+02  0.0000000E+00  0.1573822E+00 -0.1299411E+01 -0.4218885E-01  0.1516221E+00
  0.6401380E+01  0.1545430E+02  0.0000000E+00  0.1355773E+00 -0.1352661E+01 -0.2934019E-01  0.1323645E+00
  0.4855770E+01  0.1600730E+02  0.0000000E+00  0.1059789E+00 -0.1452536E+01 -0.1250389E-01  0.1052387E+00
  0.3263390E+01  0.1640620E+02  0.0000000E+00  0.6261248E-01 -0.1781990E+01  0.1312530E-01  0.6122131E-01
  0.1639590E+01  0.1664710E+02  0.0000000E+00  0.4731202E-01 -0.3115087E+01  0.4729540E-01  0.1253878E-02
 -0.7311870E-06  0.1672760E+02  0.0000000E+00  0.9004378E-01  0.2569624E+01  0.7571214E-01 -0.4873965E-01
 -0.1639590E+01  0.1664710E+02  0.0000000E+00  0.1263239E+00  0.2416958E+01  0.9458394E-01 -0.8373534E-01
 -0.3263390E+01  0.1640620E+02  0.0000000E+00  0.1480059E+00  0.2350802E+01  0.1040901E+00 -0.1052188E+00
 -0.4855770E+01  0.1600730E+02  0.0000000E+00  0.1577015E+00  0.2320310E+01  0.1074393E+00 -0.1154407E+00
 -0.6401380E+01  0.1545430E+02  0.0000000E+00  0.1614360E+00  0.2307275E+01  0.1084338E+00 -0.1195980E+00
 -0.7885340E+01  0.1475240E+02  0.0000000E+00  0.1646662E+00  0.2299183E+01  0.1096127E+00 -0.1228820E+00
 -0.9293360E+01  0.1390850E+02  0.0000000E+00  0.1648280E+00  0.2297877E+01  0.1095597E+00 -0.1231460E+00
 -0.1061190E+02  0.1293060E+02  0.0000000E+00  0.1640729E+00  0.2298529E+01  0.1091377E+00 -0.1225107E+00
 -0.1182820E+02  0.1182820E+02  0.0000000E+00  0.1630283E+00  0.2298678E+01  0.1084610E+00 -0.1217146E+00
 -0.1293060E+02  0.1061190E+02  0.0000000E+00  0.1618990E+00  0.2298275E+01  0.1076610E+00 -0.1209148E+00
 -0.1390850E+02  0.9293360E+01  0.0000000E+00  0.1604633E+00  0.2297308E+01  0.1065903E+00 -0.1199457E+00
 -0.1475240E+02  0.7885330E+01  0.0000000E+00  0.1589462E+00  0.2294889E+01  0.1052949E+00 -0.1190667E+00
 -0.1545430E+02  0.6401370E+01  0.0000000E+00  0.1573658E+00  0.2290749E+01  0.1037591E+00 -0.1183134E+00
 -0.1600730E+02  0.4855770E+01  0.0000000E+00  0.1550222E+00  0.2286432E+01  0.1017097E+00 -0.1169916E+00
 -0.1640620E+02  0.3263390E+01  0.0000000E+00  0.1516513E+00  0.2282715E+01  0.9907192E-01 -0.1148167E+00
 -0.1664710E+02  0.1639590E+01  0.0000000E+00  0.1473869E+00  0.2279648E+01  0.9594335E-01 -0.1118828E+00
 -0.1672760E+02 -0.1462370E-05  0.0000000E+00  0.1429444E+00  0.2272625E+01  0.9228707E-01 -0.1091613E+00
 -0.1664710E+02 -0.1639590E+01  0.0000000E+00  0.1385351E+00  0.2260934E+01  0.8819741E-01 -0.1068325E+00
 -0.1640620E+02 -0.3263400E+01  0.0000000E+00  0.1337883E+00  0.2247062E+01  0.8373611E-01 -0.1043435E+00
 -0.1600730E+02 -0.4855770E+01  0.0000000E+00  0.1281303E+00  0.2235424E+01  0.7902639E-01 -0.1008574E+00
 -0.1545430E+02 -0.6401380E+01  0.0000000E+00  0.1214152E+00  0.2228160E+01  0.7418860E-01 -0.9611302E-01
 -0.1475240E+02 -0.7885340E+01  0.0000000E+00  0.1136971E+00  0.2226768E+01  0.6934723E-01 -0.9009992E-01
 -0.1390850E+02 -0.9293360E+01  0.0000000E+00  0.1056990E+00  0.2225242E+01  0.6434103E-01 -0.8386003E-01
 -0.1293060E+02 -0.1061190E+02  0.0000000E+00  0.9769019E-01  0.2218185E+01  0.5891753E-01 -0.7792366E-01
 -0.1182820E+02 -0.1182820E+02  0.0000000E+00  0.8896857E-01  0.2214014E+01  0.5336093E-01 -0.7119001E-01
 -0.1061190E+02 -0.1293060E+02  0.0000000E+00  0.7871155E-01  0.2228009E+01  0.4808585E-01 -0.6231580E-01
 -0.9293350E+01 -0.1390850E+02  0.0000000E+00  0.6749018E-01  0.2258597E+01  0.4284544E-01 -0.5214588E-01
 -0.7885340E+01 -0.1475240E+02  0.0000000E+00  0.5440055E-01  0.2344395E+01  0.3801043E-01 -0.3891820E-01
 -0.6401370E+01 -0.1545430E+02  0.0000000E+00  0.3936968E-01  0.2612980E+01  0.3399601E-01 -0.1985555E-01
 -0.4855760E+01 -0.1600730E+02  0.0000000E+00  0.3264233E-01 -0.2927430E+01  0.3189661E-01  0.6937447E-02
 -0.3263390E+01 -0.1640620E+02  0.0000000E+00  0.6062798E-01 -0.2159217E+01  0.3365143E-01  0.5043146E-01
 -0.1639590E+01 -0.1664710E+02  0.0000000E+00  0.1163455E+00 -0.1906633E+01  0.3834268E-01  0.1098458E+00
  0.1994750E-06 -0.1672760E+02  0.0000000E+00  0.1640507E+00 -0.1800069E+01  0.3728365E-01  0.1597578E+00
  0.1639600E+01 -0.1664710E+02  0.0000000E+00  0.1972065E+00 -0.1712179E+01  0.2778885E-01  0.1952388E+00
  0.3263390E+01 -0.1640620E+02  0.0000000E+00  0.2179181E+00 -0.1620337E+01  0.1079140E-01  0.2176508E+00
  0.4855770E+01 -0.1600730E+02  0.0000000E+00  0.2287748E+00 -0.1542825E+01 -0.6398321E-02  0.2286853E+00
  0.6401380E+01 -0.1545430E+02  0.0000000E+00  0.2343323E+00 -0.1481190E+01 -0.2096965E-01  0.2333922E+00
  0.7885340E+01 -0.1475240E+02  0.0000000E+00  0.2393266E+00 -0.1432151E+01 -0.3307538E-01  0.2370300E+00
  0.9293360E+01 -0.1390850E+02  0.0000000E+00  0.2415533E+00 -0.1387984E+01 -0.4391338E-01  0.2375281E+00
  0.1061190E+02 -0.1293060E+02  0.0000000E+00  0.2429998E+00 -0.1349036E+01 -0.5344702E-01  0.2370492E+00
  0.1182820E+02 -0.1182820E+02  0.0000000E+00  0.2443295E+00 -0.1314489E+01 -0.6194014E-01  0.2363479E+00
  0.1293060E+02 -0.1061190E+02  0.0000000E+00  0.2454813E+00 -0.1285489E+01 -0.6909131E-01  0.2355578E+00
  0.1390850E+02 -0.9293360E+01  0.0000000E+00  0.2463307E+00 -0.1260312E+01 -0.7525895E-01  0.2345526E+00
  0.1475240E+02 -0.7885330E+01  0.0000000E+00  0.2471281E+00 -0.1238489E+01 -0.8061948E-01  0.2336082E+00
  0.1545430E+02 -0.6401380E+01  0.0000000E+00  0.2478082E+00 -0.1220401E+01 -0.8506485E-01  0.2327506E+00
  0.1600730E+02 -0.4855760E+01  0.0000000E+00  0.2476580E+00 -0.1205166E+01 -0.8854713E-01  0.2312875E+00
  0.1640620E+02 -0.3263390E+01  0.0000000E+00  0.2463940E+00 -0.1192166E+01 -0.9107902E-01  0.2289424E+00
  0.1664710E+02 -0.1639590E+01  0.0000000E+00  0.2440676E+00 -0.1181573E+01 -0.9261625E-01  0.2258124E+00
  0.1672760E+02  0.0000000E+00 -0.2568960E-01  0.2414421E+00 -0.1173863E+01 -0.9333955E-01  0.2226702E+00
  0.1664710E+02  0.1639590E+01 -0.2568960E-01  0.2392668E+00 -0.1169196E+01 -0.9352745E-01  0.2202299E+00
  0.1640620E+02  0.3263390E+01 -0.2568960E-01  0.2366769E+00 -0.1167247E+01 -0.9293953E-01  0.2176653E+00
  0.1600730E+02  0.4855770E+01 -0.2568960E-01  0.2327240E+00 -0.1168040E+01 -0.9121757E-01  0.2141024E+00
  0.1545430E+02  0.6401380E+01 -0.2568960E-01  0.2271182E+00 -0.1171741E+01 -0.8824621E-01  0.2092732E+00
  0.1475240E+02  0.7885340E+01 -0.2568960E-01  0.2198482E+00 -0.1178706E+01 -0.8400868E-01  0.2031644E+00
  0.1390850E+02  0.9293360E+01 -0.2568960E-01  0.2121054E+00 -0.1188931E+01 -0.7904155E-01  0.1968277E+00
  0.1293060E+02  0.1061190E+02 -0.2568960E-01  0.2045754E+00 -0.1201890E+01 -0.7376908E-01  0.1908120E+00
  0.1182820E+02  0.1182820E+02 -0.2568960E-01  0.1960750E+00 -0.1218079E+01 -0.6773400E-01  0.1840041E+00
  0.1061190E+02  0.1293060E+02 -0.2568960E-01  0.1851613E+00 -0.1238979E+01 -0.6031843E-01  0.1750611E+00
  0.9293360E+01  0.1390850E+02 -0.2568960E-01  0.1728308E+00 -0.1264922E+01 -0.5204403E-01  0.1648087E+00
  0.7885330E+01  0.1475240E+02 -0.2568960E-01  0.1572100E+00 -0.1299421E+01 -0.4214121E-01  0.1514566E+00
  0.6401380E+01  0.1545430E+02 -0.2568960E-01  0.1354348E+00 -0.1352668E+01 -0.2930840E-01  0.1322255E+00
  0.4855770E+01  0.1600730E+02 -0.2568960E-01  0.1058641E+00 -0.1452549E+01 -0.1248897E-01  0.1051249E+00
  0.3263390E+01  0.1640620E+02 -0.2568960E-01  0.6254111E-01 -0.1782078E+01  0.1311572E-01  0.6115038E-01
  0.1639590E+01  0.1664710E+02 -0.2568960E-01  0.4727520E-01 -0.3115620E+01  0.4725926E-01  0.1227722E-02
 -0.7311870E-06  0.1672760E+02 -0.2568960E-01  0.8997612E-01  0.2569476E+01  0.7564804E-01 -0.4871422E-01
 -0.1639590E+01  0.1664710E+02 -0.2568960E-01  0.1262029E+00  0.2416935E+01  0.9449142E-01 -0.8365729E-01
 -0.3263390E+01  0.1640620E+02 -0.2568960E-01  0.1478664E+00  0.2350781E+01  0.1039897E+00 -0.1051219E+00
 -0.4855770E+01  0.1600730E+02 -0.2568960E-01  0.1575426E+00  0.2320288E+01  0.1073285E+00 -0.1153267E+00
 -0.6401380E+01  0.1545430E+02 -0.2568960E-01  0.1612791E+00  0.2307254E+01  0.1083260E+00 -0.1194841E+00
 -0.7885340E+01  0.1475240E+02 -0.2568960E-01  0.1644893E+00  0.2299179E+01  0.1094945E+00 -0.1227505E+00
 -0.9293360E+01  0.1390850E+02 -0.2568960E-01  0.1646564E+00  0.2297864E+01  0.1094441E+00 -0.1230192E+00
 -0.1061190E+02  0.1293060E+02 -0.2568960E-01  0.1639034E+00  0.2298508E+01  0.1090224E+00 -0.1223863E+00
 -0.1182820E+02  0.1182820E+02 -0.2568960E-01  0.1628585E+00  0.2298657E+01  0.1083455E+00 -0.1215900E+00
 -0.1293060E+02  0.1061190E+02 -0.2568960E-01  0.1617310E+00  0.2298256E+01  0.1075470E+00 -0.1207914E+00
 -0.1390850E+02  0.9293360E+01 -0.2568960E-01  0.1602953E+00  0.2297294E+01  0.1064770E+00 -0.1198216E+00
 -0.1475240E+02  0.7885330E+01 -0.2568960E-01  0.1587733E+00  0.2294880E+01  0.1051793E+00 -0.1189381E+00
 -0.1545430E+02  0.6401370E+01 -0.2568960E-01  0.1571871E+00  0.2290768E+01  0.1036434E+00 -0.1181771E+00
 -0.1600730E+02  0.4855770E+01 -0.2568960E-01  0.1548396E+00  0.2286462E+01  0.1015934E+00 -0.1168507E+00
 -0.1640620E+02  0.3263390E+01 -0.2568960E-01  0.1514702E+00  0.2282753E+01  0.9895794E-01 -0.1146758E+00
 -0.1664710E+02  0.1639590E+01 -0.2568960E-01  0.1472124E+00  0.2279685E+01  0.9583391E-01 -0.1117468E+00
 -0.1672760E+02 -0.1462370E-05 -0.2568960E-01  0.1427753E+00  0.2272660E+01  0.9218168E-01 -0.1090289E+00
 -0.1664710E+02 -0.1639590E+01 -0.2568960E-01  0.1383704E+00  0.2260985E+01  0.8809802E-01 -0.1067010E+00
 -0.1640620E+02 -0.3263400E+01 -0.2568960E-01  0.1336270E+00  0.2247125E+01  0.8364170E-01 -0.1042124E+00
 -0.1600730E+02 -0.4855770E+01 -0.2568960E-01  0.1279780E+00  0.2235488E+01  0.7893891E-01 -0.1007324E+00
 -0.1545430E+02 -0.6401380E+01 -0.2568960E-01  0.1212768E+00  0.2228193E+01  0.7410716E-01 -0.9600098E-01
 -0.1475240E+02 -0.7885340E+01 -0.2568960E-01  0.1135762E+00  0.2226737E+01  0.6927065E-01 -0.9000626E-01
 -0.1390850E+02 -0.9293360E+01 -0.2568960E-01  0.1055929E+00  0.2225163E+01  0.6426983E-01 -0.8378097E-01
 -0.1293060E+02 -0.1061190E+02 -0.2568960E-01  0.9759279E-01  0.2218122E+01  0.5885382E-01 -0.7784972E-01
 -0.1182820E+02 -0.1182820E+02 -0.2568960E-01  0.8887737E-01  0.2213979E+01  0.5330379E-01 -0.7111887E-01
 -0.1061190E+02 -0.1293060E+02 -0.2568960E-01  0.7863526E-01  0.2227895E+01  0.4803217E-01 -0.6226086E-01
 -0.9293350E+01 -0.1390850E+02 -0.2568960E-01  0.6742463E-01  0.2258520E+01  0.4279981E-01 -0.5209854E-01
 -0.7885340E+01 -0.1475240E+02 -0.2568960E-01  0.5434495E-01  0.2344340E+01  0.3796945E-01 -0.3888052E-01
 -0.6401370E+01 -0.1545430E+02 -0.2568960E-01  0.3933449E-01  0.2612783E+01  0.3396172E-01 -0.1984449E-01
 -0.4855760E+01 -0.1600730E+02 -0.2568960E-01  0.3260985E-01 -0.2927648E+01  0.3186638E-01  0.6923610E-02
 -0.3263390E+01 -0.1640620E+02 -0.2568960E-01  0.6056479E-01 -0.2159329E+01  0.3362199E-01  0.5037514E-01
 -0.1639590E+01 -0.1664710E+02 -0.2568960E-01  0.1162413E+00 -0.1906693E+01  0.3831500E-01  0.1097451E+00
  0.1994750E-06 -0.1672760E+02 -0.2568960E-01  0.1638972E+00 -0.1800145E+01  0.3726097E-01  0.1596055E+00
  0.1639600E+01 -0.1664710E+02 -0.2568960E-01  0.1970007E+00 -0.1712240E+01  0.2777175E-01  0.1950333E+00
  0.3263390E+01 -0.1640620E+02 -0.2568960E-01  0.2176934E+00 -0.1620384E+01  0.1079043E-01  0.2174258E+00
  0.4855770E+01 -0.1600730E+02 -0.2568960E-01  0.2285323E+00 -0.1542857E+01 -0.6384125E-02  0.2284431E+00
  0.6401380E+01 -0.1545430E+02 -0.2568960E-01  0.2340876E+00 -0.1481226E+01 -0.2093923E-01  0.2331492E+00
  0.7885340E+01 -0.1475240E+02 -0.2568960E-01  0.2390627E+00 -0.1432169E+01 -0.3303457E-01  0.2367692E+00
  0.9293360E+01 -0.1390850E+02 -0.2568960E-01  0.2412913E+00 -0.1388001E+01 -0.4386178E-01  0.2372713E+00
  0.1061190E+02 -0.1293060E+02 -0.2568960E-01  0.2427383E+00 -0.1349057E+01 -0.5338455E-01  0.2367952E+00
  0.1182820E+02 -0.1182820E+02 -0.2568960E-01  0.2440650E+00 -0.1314510E+01 -0.6186805E-01  0.2360933E+00
  0.1293060E+02 -0.1061190E+02 -0.2568960E-01  0.2452158E+00 -0.1285512E+01 -0.6901111E-01  0.2353045E+00
  0.1390850E+02 -0.9293360E+01 -0.2568960E-01  0.2460626E+00 -0.1260331E+01 -0.7517248E-01  0.2342988E+00
  0.1475240E+02 -0.7885330E+01 -0.2568960E-01  0.2468539E+00 -0.1238497E+01 -0.8052801E-01  0.2333498E+00
  0.1545430E+02 -0.6401380E+01 -0.2568960E-01  0.2475252E+00 -0.1220401E+01 -0.8496770E-01  0.2324849E+00
  0.1600730E+02 -0.4855760E+01 -0.2568960E-01  0.2473691E+00 -0.1205156E+01 -0.8844610E-01  0.2310168E+00
  0.1640620E+02 -0.3263390E+01 -0.2568960E-01  0.2461041E+00 -0.1192155E+01 -0.9097447E-01  0.2286720E+00
  0.1664710E+02 -0.1639590E+01 -0.2568960E-01  0.2437822E+00 -0.1181564E+01 -0.9251008E-01  0.2255474E+00
  0.1672760E+02  0.0000000E+00 -0.1027320E+00  0.2405932E+00 -0.1173841E+01 -0.9301633E-01  0.2218852E+00
  0.1664710E+02  0.1639590E+01 -0.1027320E+00  0.2384164E+00 -0.1169182E+01 -0.9319802E-01  0.2194459E+00
  0.1640620E+02  0.3263390E+01 -0.1027320E+00  0.2358266E+00 -0.1167245E+01 -0.9260598E-01  0.2168832E+00
  0.1600730E+02  0.4855770E+01 -0.1027320E+00  0.2318929E+00 -0.1168051E+01 -0.9088948E-01  0.2133387E+00
  0.1545430E+02  0.6401380E+01 -0.1027320E+00  0.2263285E+00 -0.1171762E+01 -0.8793505E-01  0.2085474E+00
  0.1475240E+02  0.7885340E+01 -0.1027320E+00  0.2191194E+00 -0.1178733E+01 -0.8372474E-01  0.2024932E+00
  0.1390850E+02  0.9293360E+01 -0.1027320E+00  0.2114274E+00 -0.1188950E+01 -0.7878509E-01  0.1962001E+00
  0.1293060E+02  0.1061190E+02 -0.1027320E+00  0.2039166E+00 -0.1201914E+01 -0.7352678E-01  0.1901993E+00
  0.1182820E+02  0.1182820E+02 -0.1027320E+00  0.1954294E+00 -0.1218109E+01 -0.6750547E-01  0.1834003E+00
  0.1061190E+02  0.1293060E+02 -0.1027320E+00  0.1845734E+00 -0.1238998E+01 -0.6012365E-01  0.1745065E+00
  0.9293360E+01  0.1390850E+02 -0.1027320E+00  0.1722729E+00 -0.1264944E+01 -0.5187236E-01  0.1642779E+00
  0.7885330E+01  0.1475240E+02 -0.1027320E+00  0.1566899E+00 -0.1299461E+01 -0.4199573E-01  0.1509573E+00
  0.6401380E+01  0.1545430E+02 -0.1027320E+00  0.1350035E+00 -0.1352690E+01 -0.2921226E-01  0.1318052E+00
  0.4855770E+01  0.1600730E+02 -0.1027320E+00  0.1055159E+00 -0.1452611E+01 -0.1244142E-01  0.1047799E+00
  0.3263390E+01  0.1640620E+02 -0.1027320E+00  0.6233688E-01 -0.1782158E+01  0.1307774E-01  0.6094964E-01
  0.1639590E+01  0.1664710E+02 -0.1027320E+00  0.4716298E-01 -0.3117140E+01  0.4714888E-01  0.1153160E-02
 -0.7311870E-06  0.1672760E+02 -0.1027320E+00  0.8976219E-01  0.2569086E+01  0.7544922E-01 -0.4862783E-01
 -0.1639590E+01  0.1664710E+02 -0.1027320E+00  0.1258325E+00  0.2416874E+01  0.9420898E-01 -0.8341748E-01
 -0.3263390E+01  0.1640620E+02 -0.1027320E+00  0.1474446E+00  0.2350693E+01  0.1036839E+00 -0.1048311E+00
 -0.4855770E+01  0.1600730E+02 -0.1027320E+00  0.1570655E+00  0.2320243E+01  0.1069983E+00 -0.1149824E+00
 -0.6401380E+01  0.1545430E+02 -0.1027320E+00  0.1608042E+00  0.2307173E+01  0.1079973E+00 -0.1191409E+00
 -0.7885340E+01  0.1475240E+02 -0.1027320E+00  0.1639574E+00  0.2299171E+01  0.1091395E+00 -0.1223544E+00
 -0.9293360E+01  0.1390850E+02 -0.1027320E+00  0.1641369E+00  0.2297824E+01  0.1090939E+00 -0.1226354E+00
 -0.1061190E+02  0.1293060E+02 -0.1027320E+00  0.1633918E+00  0.2298454E+01  0.1086756E+00 -0.1220102E+00
 -0.1182820E+02  0.1182820E+02 -0.1027320E+00  0.1623478E+00  0.2298615E+01  0.1080007E+00 -0.1212133E+00
 -0.1293060E+02  0.1061190E+02 -0.1027320E+00  0.1612242E+00  0.2298214E+01  0.1072049E+00 -0.1204174E+00
 -0.1390850E+02  0.9293360E+01 -0.1027320E+00  0.1597862E+00  0.2297253E+01  0.1061341E+00 -0.1194454E+00
 -0.1475240E+02  0.7885330E+01 -0.1027320E+00  0.1582540E+00  0.2294878E+01  0.1048350E+00 -0.1185494E+00
 -0.1545430E+02  0.6401370E+01 -0.1027320E+00  0.1566475E+00  0.2290821E+01  0.1032938E+00 -0.1177660E+00
 -0.1600730E+02  0.4855770E+01 -0.1027320E+00  0.1542888E+00  0.2286566E+01  0.1012441E+00 -0.1164245E+00
 -0.1640620E+02  0.3263390E+01 -0.1027320E+00  0.1509247E+00  0.2282883E+01  0.9861651E-01 -0.1142500E+00
 -0.1664710E+02  0.1639590E+01 -0.1027320E+00  0.1466851E+00  0.2279793E+01  0.9550269E-01 -0.1113363E+00
 -0.1672760E+02 -0.1462370E-05 -0.1027320E+00  0.1422669E+00  0.2272789E+01  0.9186751E-01 -0.1086289E+00
 -0.1664710E+02 -0.1639590E+01 -0.1027320E+00  0.1378735E+00  0.2261168E+01  0.8780117E-01 -0.1063017E+00
 -0.1640620E+02 -0.3263400E+01 -0.1027320E+00  0.1331438E+00  0.2247370E+01  0.8336470E-01 -0.1038152E+00
 -0.1600730E+02 -0.4855770E+01 -0.1027320E+00  0.1275202E+00  0.2235723E+01  0.7868018E-01 -0.1003536E+00
 -0.1545430E+02 -0.6401380E+01 -0.1027320E+00  0.1208585E+00  0.2228336E+01  0.7386523E-01 -0.9565935E-01
 -0.1475240E+02 -0.7885340E+01 -0.1027320E+00  0.1132097E+00  0.2226686E+01  0.6904259E-01 -0.8971927E-01
 -0.1390850E+02 -0.9293360E+01 -0.1027320E+00  0.1052695E+00  0.2224962E+01  0.6405622E-01 -0.8353717E-01
 -0.1293060E+02 -0.1061190E+02 -0.1027320E+00  0.9729341E-01  0.2217957E+01  0.5866047E-01 -0.7762060E-01
 -0.1182820E+02 -0.1182820E+02 -0.1027320E+00  0.8860010E-01  0.2213954E+01  0.5313571E-01 -0.7089833E-01
 -0.1061190E+02 -0.1293060E+02 -0.1027320E+00  0.7840379E-01  0.2227657E+01  0.4787599E-01 -0.6208901E-01
 -0.9293350E+01 -0.1390850E+02 -0.1027320E+00  0.6722394E-01  0.2258340E+01  0.4266307E-01 -0.5195114E-01
 -0.7885340E+01 -0.1475240E+02 -0.1027320E+00  0.5417892E-01  0.2344285E+01  0.3785132E-01 -0.3876381E-01
 -0.6401370E+01 -0.1545430E+02 -0.1027320E+00  0.3922917E-01  0.2612333E+01  0.3386188E-01 -0.1980659E-01
 -0.4855760E+01 -0.1600730E+02 -0.1027320E+00  0.3251209E-01 -0.2928136E+01  0.3177421E-01  0.6887332E-02
 -0.3263390E+01 -0.1640620E+02 -0.1027320E+00  0.6036301E-01 -0.2159675E+01  0.3352735E-01  0.5019571E-01
 -0.1639590E+01 -0.1664710E+02 -0.1027320E+00  0.1159239E+00 -0.1906832E+01  0.3822558E-01  0.1094401E+00
  0.1994750E-06 -0.1672760E+02 -0.1027320E+00  0.1634262E+00 -0.1800358E+01  0.3718770E-01  0.1591389E+00
  0.1639600E+01 -0.1664710E+02 -0.1027320E+00  0.1963784E+00 -0.1712407E+01  0.2771636E-01  0.1944127E+00
  0.3263390E+01 -0.1640620E+02 -0.1027320E+00  0.2170202E+00 -0.1620499E+01  0.1078215E-01  0.2167522E+00
  0.4855770E+01 -0.1600730E+02 -0.1027320E+00  0.2278017E+00 -0.1542946E+01 -0.6343604E-02  0.2277134E+00
  0.6401380E+01 -0.1545430E+02 -0.1027320E+00  0.2333519E+00 -0.1481328E+01 -0.2084981E-01  0.2324186E+00
  0.7885340E+01 -0.1475240E+02 -0.1027320E+00  0.2382701E+00 -0.1432202E+01 -0.3291735E-01  0.2359854E+00
  0.9293360E+01 -0.1390850E+02 -0.1027320E+00  0.2405044E+00 -0.1388052E+01 -0.4370666E-01  0.2364997E+00
  0.1061190E+02 -0.1293060E+02 -0.1027320E+00  0.2419516E+00 -0.1349109E+01 -0.5319937E-01  0.2360305E+00
  0.1182820E+02 -0.1182820E+02 -0.1027320E+00  0.2432688E+00 -0.1314577E+01 -0.6165032E-01  0.2353274E+00
  0.1293060E+02 -0.1061190E+02 -0.1027320E+00  0.2444168E+00 -0.1285570E+01 -0.6877266E-01  0.2345418E+00
  0.1390850E+02 -0.9293360E+01 -0.1027320E+00  0.2452559E+00 -0.1260375E+01 -0.7491593E-01  0.2335338E+00
  0.1475240E+02 -0.7885330E+01 -0.1027320E+00  0.2460298E+00 -0.1238524E+01 -0.8025301E-01  0.2325728E+00
  0.1545430E+02 -0.6401380E+01 -0.1027320E+00  0.2466745E+00 -0.1220395E+01 -0.8467718E-01  0.2316853E+00
  0.1600730E+02 -0.4855760E+01 -0.1027320E+00  0.2465000E+00 -0.1205135E+01 -0.8814034E-01  0.2302032E+00
  0.1640620E+02 -0.3263390E+01 -0.1027320E+00  0.2452332E+00 -0.1192120E+01 -0.9066040E-01  0.2278596E+00
  0.1664710E+02 -0.1639590E+01 -0.1027320E+00  0.2429242E+00 -0.1181532E+01 -0.9219154E-01  0.2247507E+00
  0.1672760E+02  0.0000000E+00 -0.2310450E+00  0.2392128E+00 -0.1173810E+01 -0.9248953E-01  0.2206093E+00
  0.1664710E+02  0.1639590E+01 -0.2310450E+00  0.2370329E+00 -0.1169163E+01 -0.9266142E-01  0.2181707E+00
  0.1640620E+02  0.3263390E+01 -0.2310450E+00  0.2344414E+00 -0.1167242E+01 -0.9206275E-01  0.2156090E+00
  0.1600730E+02  0.4855770E+01 -0.2310450E+00  0.2305359E+00 -0.1168076E+01 -0.9035224E-01  0.2120926E+00
  0.1545430E+02  0.6401380E+01 -0.2310450E+00  0.2250375E+00 -0.1171810E+01 -0.8742368E-01  0.2073620E+00
  0.1475240E+02  0.7885340E+01 -0.2310450E+00  0.2179289E+00 -0.1178774E+01 -0.8326158E-01  0.2013965E+00
  0.1390850E+02  0.9293360E+01 -0.2310450E+00  0.2103182E+00 -0.1188973E+01 -0.7836732E-01  0.1951725E+00
  0.1293060E+02  0.1061190E+02 -0.2310450E+00  0.2028362E+00 -0.1201948E+01 -0.7313091E-01  0.1891941E+00
  0.1182820E+02  0.1182820E+02 -0.2310450E+00  0.1943664E+00 -0.1218160E+01 -0.6712884E-01  0.1824062E+00
  0.1061190E+02  0.1293060E+02 -0.2310450E+00  0.1836039E+00 -0.1239013E+01 -0.5980514E-01  0.1735907E+00
  0.9293360E+01  0.1390850E+02 -0.2310450E+00  0.1713493E+00 -0.1264977E+01 -0.5158887E-01  0.1633988E+00
  0.7885330E+01  0.1475240E+02 -0.2310450E+00  0.1558263E+00 -0.1299511E+01 -0.4175675E-01  0.1501274E+00
  0.6401380E+01  0.1545430E+02 -0.2310450E+00  0.1342823E+00 -0.1352717E+01 -0.2905263E-01  0.1311018E+00
  0.4855770E+01  0.1600730E+02 -0.2310450E+00  0.1049382E+00 -0.1452684E+01 -0.1236573E-01  0.1042071E+00
  0.3263390E+01  0.1640620E+02 -0.2310450E+00  0.6199501E-01 -0.1782295E+01  0.1301433E-01  0.6061359E-01
  0.1639590E+01  0.1664710E+02 -0.2310450E+00  0.4696294E-01 -0.3119248E+01  0.4695122E-01  0.1049298E-02
 -0.7311870E-06  0.1672760E+02 -0.2310450E+00  0.8939485E-01  0.2568451E+01  0.7510971E-01 -0.4847649E-01
 -0.1639590E+01  0.1664710E+02 -0.2310450E+00  0.1252067E+00  0.2416747E+01  0.9372998E-01 -0.8301450E-01
 -0.3263390E+01  0.1640620E+02 -0.2310450E+00  0.1467323E+00  0.2350527E+01  0.1031657E+00 -0.1043418E+00
 -0.4855770E+01  0.1600730E+02 -0.2310450E+00  0.1562689E+00  0.2320128E+01  0.1064426E+00 -0.1144114E+00
 -0.6401380E+01  0.1545430E+02 -0.2310450E+00  0.1600119E+00  0.2307018E+01  0.1074469E+00 -0.1185706E+00
 -0.7885340E+01  0.1475240E+02 -0.2310450E+00  0.1630737E+00  0.2299109E+01  0.1085437E+00 -0.1217016E+00
 -0.9293360E+01  0.1390850E+02 -0.2310450E+00  0.1632801E+00  0.2297710E+01  0.1085105E+00 -0.1220077E+00
 -0.1061190E+02  0.1293060E+02 -0.2310450E+00  0.1625504E+00  0.2298302E+01  0.1080975E+00 -0.1213983E+00
 -0.1182820E+02  0.1182820E+02 -0.2310450E+00  0.1615097E+00  0.2298468E+01  0.1074254E+00 -0.1206034E+00
 -0.1293060E+02  0.1061190E+02 -0.2310450E+00  0.1603955E+00  0.2298057E+01  0.1066351E+00 -0.1198152E+00
 -0.1390850E+02  0.9293360E+01 -0.2310450E+00  0.1589580E+00  0.2297110E+01  0.1055669E+00 -0.1188414E+00
 -0.1475240E+02  0.7885330E+01 -0.2310450E+00  0.1574087E+00  0.2294779E+01  0.1042633E+00 -0.1179264E+00
 -0.1545430E+02  0.6401370E+01 -0.2310450E+00  0.1557712E+00  0.2290820E+01  0.1027159E+00 -0.1171072E+00
 -0.1600730E+02  0.4855770E+01 -0.2310450E+00  0.1533951E+00  0.2286644E+01  0.1006666E+00 -0.1157423E+00
 -0.1640620E+02  0.3263390E+01 -0.2310450E+00  0.1500394E+00  0.2282987E+01  0.9804978E-01 -0.1135696E+00
 -0.1664710E+02  0.1639590E+01 -0.2310450E+00  0.1458330E+00  0.2279878E+01  0.9495726E-01 -0.1106814E+00
 -0.1672760E+02 -0.1462370E-05 -0.2310450E+00  0.1414442E+00  0.2272889E+01  0.9134705E-01 -0.1079915E+00
 -0.1664710E+02 -0.1639590E+01 -0.2310450E+00  0.1370691E+00  0.2261362E+01  0.8730938E-01 -0.1056646E+00
 -0.1640620E+02 -0.3263400E+01 -0.2310450E+00  0.1323593E+00  0.2247669E+01  0.8290439E-01 -0.1031787E+00
 -0.1600730E+02 -0.4855770E+01 -0.2310450E+00  0.1267775E+00  0.2236028E+01  0.7825237E-01 -0.9974524E-01
 -0.1545430E+02 -0.6401380E+01 -0.2310450E+00  0.1201812E+00  0.2228498E+01  0.7346665E-01 -0.9511133E-01
 -0.1475240E+02 -0.7885340E+01 -0.2310450E+00  0.1126154E+00  0.2226536E+01  0.6866677E-01 -0.8925868E-01
 -0.1390850E+02 -0.9293360E+01 -0.2310450E+00  0.1047441E+00  0.2224566E+01  0.6370354E-01 -0.8314554E-01
 -0.1293060E+02 -0.1061190E+02 -0.2310450E+00  0.9680741E-01  0.2217649E+01  0.5834369E-01 -0.7725082E-01
 -0.1182820E+02 -0.1182820E+02 -0.2310450E+00  0.8814486E-01  0.2213847E+01  0.5285513E-01 -0.7053971E-01
 -0.1061190E+02 -0.1293060E+02 -0.2310450E+00  0.7802302E-01  0.2227223E+01  0.4761669E-01 -0.6180811E-01
 -0.9293350E+01 -0.1390850E+02 -0.2310450E+00  0.6689122E-01  0.2258048E+01  0.4243682E-01 -0.5170640E-01
 -0.7885340E+01 -0.1475240E+02 -0.2310450E+00  0.5389960E-01  0.2344192E+01  0.3765257E-01 -0.3856748E-01
 -0.6401370E+01 -0.1545430E+02 -0.2310450E+00  0.3904741E-01  0.2611682E+01  0.3369215E-01 -0.1973674E-01
 -0.4855760E+01 -0.1600730E+02 -0.2310450E+00  0.3234672E-01 -0.2928909E+01  0.3161788E-01  0.6827872E-02
 -0.3263390E+01 -0.1640620E+02 -0.2310450E+00  0.6003050E-01 -0.2160187E+01  0.3336824E-01  0.4990212E-01
 -0.1639590E+01 -0.1664710E+02 -0.2310450E+00  0.1153769E+00 -0.1907031E+01  0.3806686E-01  0.1089162E+00
  0.1994750E-06 -0.1672760E+02 -0.2310450E+00  0.1626365E+00 -0.1800663E+01  0.3705641E-01  0.1583587E+00
  0.1639600E+01 -0.1664710E+02 -0.2310450E+00  0.1953410E+00 -0.1712624E+01  0.2761200E-01  0.1933796E+00
  0.3263390E+01 -0.1640620E+02 -0.2310450E+00  0.2158976E+00 -0.1620662E+01  0.1076144E-01  0.2156292E+00
  0.4855770E+01 -0.1600730E+02 -0.2310450E+00  0.2265924E+00 -0.1543061E+01 -0.6283788E-02  0.2265052E+00
  0.6401380E+01 -0.1545430E+02 -0.2310450E+00  0.2321338E+00 -0.1481472E+01 -0.2070755E-01  0.2312084E+00
  0.7885340E+01 -0.1475240E+02 -0.2310450E+00  0.2369622E+00 -0.1432244E+01 -0.3272676E-01  0.2346913E+00
  0.9293360E+01 -0.1390850E+02 -0.2310450E+00  0.2392091E+00 -0.1388122E+01 -0.4345480E-01  0.2352289E+00
  0.1061190E+02 -0.1293060E+02 -0.2310450E+00  0.2406608E+00 -0.1349179E+01 -0.5289903E-01  0.2347751E+00
  0.1182820E+02 -0.1182820E+02 -0.2310450E+00  0.2419666E+00 -0.1314677E+01 -0.6129693E-01  0.2340738E+00
  0.1293060E+02 -0.1061190E+02 -0.2310450E+00  0.2431118E+00 -0.1285661E+01 -0.6838436E-01  0.2332958E+00
  0.1390850E+02 -0.9293360E+01 -0.2310450E+00  0.2439407E+00 -0.1260443E+01 -0.7449837E-01  0.2322866E+00
  0.1475240E+02 -0.7885330E+01 -0.2310450E+00  0.2446856E+00 -0.1238576E+01 -0.7980236E-01  0.2313063E+00
  0.1545430E+02 -0.6401380E+01 -0.2310450E+00  0.2452882E+00 -0.1220404E+01 -0.8419915E-01  0.2303841E+00
  0.1600730E+02 -0.4855760E+01 -0.2310450E+00  0.2450849E+00 -0.1205100E+01 -0.8764218E-01  0.2288787E+00
  0.1640620E+02 -0.3263390E+01 -0.2310450E+00  0.2438162E+00 -0.1192067E+01 -0.9014866E-01  0.2265382E+00
  0.1664710E+02 -0.1639590E+01 -0.2310450E+00  0.2415296E+00 -0.1181486E+01 -0.9167257E-01  0.2234562E+00
  0.1672760E+02  0.0000000E+00 -0.4105000E+00  0.2372922E+00 -0.1173759E+01 -0.9175806E-01  0.2188334E+00
  0.1664710E+02  0.1639590E+01 -0.4105000E+00  0.2351077E+00 -0.1169133E+01 -0.9191524E-01  0.2163960E+00
  0.1640620E+02  0.3263390E+01 -0.4105000E+00  0.2325126E+00 -0.1167243E+01 -0.9130508E-01  0.2138352E+00
  0.1600730E+02  0.4855770E+01 -0.4105000E+00  0.2286461E+00 -0.1168112E+01 -0.8960392E-01  0.2103572E+00
  0.1545430E+02  0.6401380E+01 -0.4105000E+00  0.2232394E+00 -0.1171871E+01 -0.8671241E-01  0.2057104E+00
  0.1475240E+02  0.7885340E+01 -0.4105000E+00  0.2162692E+00 -0.1178830E+01 -0.8261622E-01  0.1998673E+00
  0.1390850E+02  0.9293360E+01 -0.4105000E+00  0.2087705E+00 -0.1189015E+01 -0.7778245E-01  0.1937395E+00
  0.1293060E+02  0.1061190E+02 -0.4105000E+00  0.2013287E+00 -0.1201991E+01 -0.7257933E-01  0.1877910E+00
  0.1182820E+02  0.1182820E+02 -0.4105000E+00  0.1928830E+00 -0.1218229E+01 -0.6660406E-01  0.1810186E+00
  0.1061190E+02  0.1293060E+02 -0.4105000E+00  0.1822468E+00 -0.1239043E+01 -0.5935798E-01  0.1723094E+00
  0.9293360E+01  0.1390850E+02 -0.4105000E+00  0.1700568E+00 -0.1265020E+01 -0.5119284E-01  0.1621685E+00
  0.7885330E+01  0.1475240E+02 -0.4105000E+00  0.1546163E+00 -0.1299591E+01 -0.4142068E-01  0.1489649E+00
  0.6401380E+01  0.1545430E+02 -0.4105000E+00  0.1332782E+00 -0.1352743E+01 -0.2883206E-01  0.1301222E+00
  0.4855770E+01  0.1600730E+02 -0.4105000E+00  0.1041329E+00 -0.1452773E+01 -0.1226164E-01  0.1034085E+00
  0.3263390E+01  0.1640620E+02 -0.4105000E+00  0.6151362E-01 -0.1782521E+01  0.1292686E-01  0.6014002E-01
  0.1639590E+01  0.1664710E+02 -0.4105000E+00  0.4668212E-01 -0.3122156E+01  0.4667330E-01  0.9073043E-03
 -0.7311870E-06  0.1672760E+02 -0.4105000E+00  0.8888025E-01  0.2567577E+01  0.7463519E-01 -0.4826269E-01
 -0.1639590E+01  0.1664710E+02 -0.4105000E+00  0.1243455E+00  0.2416563E+01  0.9307007E-01 -0.8246069E-01
 -0.3263390E+01  0.1640620E+02 -0.4105000E+00  0.1457266E+00  0.2350327E+01  0.1024379E+00 -0.1036471E+00
 -0.4855770E+01  0.1600730E+02 -0.4105000E+00  0.1551465E+00  0.2319996E+01  0.1056629E+00 -0.1136036E+00
 -0.6401380E+01  0.1545430E+02 -0.4105000E+00  0.1588996E+00  0.2306812E+01  0.1066757E+00 -0.1177684E+00
 -0.7885340E+01  0.1475240E+02 -0.4105000E+00  0.1618342E+00  0.2299049E+01  0.1077114E+00 -0.1207831E+00
 -0.9293360E+01  0.1390850E+02 -0.4105000E+00  0.1620774E+00  0.2297561E+01  0.1076932E+00 -0.1211250E+00
 -0.1061190E+02  0.1293060E+02 -0.4105000E+00  0.1613711E+00  0.2298094E+01  0.1072881E+00 -0.1205400E+00
 -0.1182820E+02  0.1182820E+02 -0.4105000E+00  0.1603395E+00  0.2298275E+01  0.1066240E+00 -0.1197501E+00