 VARIABLES="X" "Y" "Z" "abs(eta) (m)" "angle(phi) (rad)" "PRE1" "PRE2"
ZONE N=   3200 ,E =    3136 ,F=FEPOINT,ET=QUADRILATERAL
  0.1530690E+02  0.0000000E+00  0.0000000E+00  0.1632710E+00  0.1895445E+01  0.5207958E-01 -0.1547422E+00
  0.1523320E+02  0.1500340E+01  0.0000000E+00  0.1618529E+00  0.1888730E+01  0.5059587E-01 -0.1537414E+00
  0.1501280E+02  0.2986230E+01  0.0000000E+00  0.1605136E+00  0.1880558E+01  0.4892963E-01 -0.1528741E+00
  0.1464780E+02  0.4443360E+01  0.0000000E+00  0.1586227E+00  0.1872150E+01  0.4708123E-01 -0.1514744E+00
  0.1414170E+02  0.5857700E+01  0.0000000E+00  0.1558873E+00  0.1864435E+01  0.4511952E-01 -0.1492149E+00
  0.1349950E+02  0.7215620E+01  0.0000000E+00  0.1522941E+00  0.1857578E+01  0.4307900E-01 -0.1460743E+00
  0.1272720E+02  0.8504060E+01  0.0000000E+00  0.1483618E+00  0.1850413E+01  0.4094600E-01 -0.1425996E+00
  0.1183240E+02  0.9710600E+01  0.0000000E+00  0.1449844E+00  0.1840396E+01  0.3861591E-01 -0.1397472E+00
  0.1082360E+02  0.1082360E+02  0.0000000E+00  0.1413782E+00  0.1829217E+01  0.3612981E-01 -0.1366837E+00
  0.9710590E+01  0.1183240E+02  0.0000000E+00  0.1358085E+00  0.1820727E+01  0.3359038E-01 -0.1315889E+00
  0.8504060E+01  0.1272720E+02  0.0000000E+00  0.1308123E+00  0.1808933E+01  0.3085756E-01 -0.1271207E+00
  0.7215620E+01  0.1349950E+02  0.0000000E+00  0.1236815E+00  0.1800456E+01  0.2815565E-01 -0.1204341E+00
  0.5857700E+01  0.1414170E+02  0.0000000E+00  0.1130339E+00  0.1798261E+01  0.2549008E-01 -0.1101223E+00
  0.4443360E+01  0.1464780E+02  0.0000000E+00  0.9784291E-01  0.1807522E+01  0.2294623E-01 -0.9511417E-01
  0.2986230E+01  0.1501280E+02  0.0000000E+00  0.6794677E-01  0.1890710E+01  0.2136824E-01 -0.6449931E-01
  0.1500340E+01  0.1523320E+02  0.0000000E+00  0.4954378E-01 -0.2128188E+01  0.2620741E-01  0.4204471E-01
 -0.6690860E-06  0.1530690E+02  0.0000000E+00  0.1060068E+00 -0.1833156E+01  0.2749399E-01  0.1023793E+00
 -0.1500340E+01  0.1523320E+02  0.0000000E+00  0.1541188E+00 -0.1747676E+01  0.2711852E-01  0.1517142E+00
 -0.2986230E+01  0.1501280E+02  0.0000000E+00  0.2101418E+00 -0.1686864E+01  0.2433598E-01  0.2087279E+00
 -0.4443360E+01  0.1464780E+02  0.0000000E+00  0.2202586E+00 -0.1653650E+01  0.1822836E-01  0.2195030E+00
 -0.5857700E+01  0.1414170E+02  0.0000000E+00  0.2238857E+00 -0.1627716E+01  0.1273653E-01  0.2235231E+00
 -0.7215620E+01  0.1349950E+02  0.0000000E+00  0.2266362E+00 -0.1605563E+01  0.7877824E-02  0.2264993E+00
 -0.8504060E+01  0.1272720E+02  0.0000000E+00  0.2270946E+00 -0.1585822E+01  0.3412123E-02  0.2270689E+00
 -0.9710590E+01  0.1183240E+02  0.0000000E+00  0.2265033E+00 -0.1567827E+01 -0.6724453E-03  0.2265023E+00
 -0.1082360E+02  0.1082360E+02  0.0000000E+00  0.2271625E+00 -0.1551984E+01 -0.4273188E-02  0.2271223E+00
 -0.1183240E+02  0.9710590E+01  0.0000000E+00  0.2267804E+00 -0.1537446E+01 -0.7561829E-02  0.2266543E+00
 -0.1272720E+02  0.8504060E+01  0.0000000E+00  0.2263542E+00 -0.1524564E+01 -0.1046119E-01  0.2261123E+00
 -0.1349950E+02  0.7215620E+01  0.0000000E+00  0.2264594E+00 -0.1513548E+01 -0.1295724E-01  0.2260884E+00
 -0.1414170E+02  0.5857690E+01  0.0000000E+00  0.2265477E+00 -0.1504049E+01 -0.1511017E-01  0.2260432E+00
 -0.1464780E+02  0.4443360E+01  0.0000000E+00  0.2260502E+00 -0.1495702E+01 -0.1695916E-01  0.2254131E+00
 -0.1501280E+02  0.2986230E+01  0.0000000E+00  0.2248820E+00 -0.1488495E+01 -0.1848725E-01  0.2241208E+00
 -0.1523320E+02  0.1500340E+01  0.0000000E+00  0.2231777E+00 -0.1482589E+01 -0.1966047E-01  0.2223100E+00
 -0.1530690E+02 -0.1338170E-05  0.0000000E+00  0.2215024E+00 -0.1478044E+01 -0.2051538E-01  0.2205503E+00
 -0.1523320E+02 -0.1500340E+01  0.0000000E+00  0.2205478E+00 -0.1474854E+01 -0.2112737E-01  0.2195335E+00
 -0.1501280E+02 -0.2986230E+01  0.0000000E+00  0.2197020E+00 -0.1472929E+01 -0.2146723E-01  0.2186507E+00
 -0.1464780E+02 -0.4443360E+01  0.0000000E+00  0.2182917E+00 -0.1472235E+01 -0.2148029E-01  0.2172323E+00
 -0.1414170E+02 -0.5857700E+01  0.0000000E+00  0.2159802E+00 -0.1472990E+01 -0.2109066E-01  0.2149480E+00
 -0.1349950E+02 -0.7215620E+01  0.0000000E+00  0.2127449E+00 -0.1475286E+01 -0.2028847E-01  0.2117753E+00
 -0.1272720E+02 -0.8504060E+01  0.0000000E+00  0.2091439E+00 -0.1478954E+01 -0.1918129E-01  0.2082624E+00
 -0.1183240E+02 -0.9710600E+01  0.0000000E+00  0.2061556E+00 -0.1483384E+01 -0.1799762E-01  0.2053685E+00
 -0.1082360E+02 -0.1082360E+02  0.0000000E+00  0.2029430E+00 -0.1488740E+01 -0.1663413E-01  0.2022602E+00
 -0.9710600E+01 -0.1183240E+02  0.0000000E+00  0.1976664E+00 -0.1495726E+01 -0.1482498E-01  0.1971097E+00
 -0.8504050E+01 -0.1272720E+02  0.0000000E+00  0.1930208E+00 -0.1503022E+01 -0.1307180E-01  0.1925777E+00
 -0.7215620E+01 -0.1349950E+02  0.0000000E+00  0.1861271E+00 -0.1512473E+01 -0.1084940E-01  0.1858106E+00
 -0.5857690E+01 -0.1414170E+02  0.0000000E+00  0.1755830E+00 -0.1525071E+01 -0.8025799E-02  0.1753995E+00
 -0.4443360E+01 -0.1464780E+02  0.0000000E+00  0.1603160E+00 -0.1542461E+01 -0.4542001E-02  0.1602517E+00
 -0.2986230E+01 -0.1501280E+02  0.0000000E+00  0.1294099E+00 -0.1582743E+01  0.1546032E-02  0.1294006E+00
 -0.1500340E+01 -0.1523320E+02  0.0000000E+00  0.3167017E-01 -0.2357455E+01  0.2242239E-01  0.2236595E-01
  0.1825330E-06 -0.1530690E+02  0.0000000E+00  0.5222323E-01  0.2325005E+01  0.3575788E-01 -0.3806100E-01
  0.1500340E+01 -0.1523320E+02  0.0000000E+00  0.9916518E-01  0.2065792E+01  0.4710620E-01 -0.8726247E-01
  0.2986230E+01 -0.1501280E+02  0.0000000E+00  0.1553781E+00  0.1960289E+01  0.5900006E-01 -0.1437406E+00
  0.4443360E+01 -0.1464780E+02  0.0000000E+00  0.1654294E+00  0.1940433E+01  0.5976576E-01 -0.1542560E+00
  0.5857700E+01 -0.1414170E+02  0.0000000E+00  0.1689760E+00  0.1931227E+01  0.5959401E-01 -0.1581184E+00
  0.7215620E+01 -0.1349950E+02  0.0000000E+00  0.1716233E+00  0.1924764E+01  0.5948849E-01 -0.1609835E+00
  0.8504060E+01 -0.1272720E+02  0.0000000E+00  0.1719468E+00  0.1921815E+01  0.5912468E-01 -0.1614620E+00
  0.9710600E+01 -0.1183240E+02  0.0000000E+00  0.1711790E+00  0.1920368E+01  0.5862809E-01 -0.1608260E+00
  0.1082360E+02 -0.1082360E+02  0.0000000E+00  0.1716280E+00  0.1917965E+01  0.5839409E-01 -0.1613887E+00
  0.1183240E+02 -0.9710590E+01  0.0000000E+00  0.1709853E+00  0.1916279E+01  0.5790427E-01 -0.1608822E+00
  0.1272720E+02 -0.8504060E+01  0.0000000E+00  0.1702743E+00  0.1914600E+01  0.5739453E-01 -0.1603097E+00
  0.1349950E+02 -0.7215620E+01  0.0000000E+00  0.1700783E+00  0.1912209E+01  0.5694532E-01 -0.1602619E+00
  0.1414170E+02 -0.5857700E+01  0.0000000E+00  0.1698373E+00  0.1909241E+01  0.5638941E-01 -0.1602028E+00
  0.1464780E+02 -0.4443350E+01  0.0000000E+00  0.1689813E+00  0.1906115E+01  0.5560663E-01 -0.1595700E+00
  0.1501280E+02 -0.2986230E+01  0.0000000E+00  0.1674348E+00  0.1902943E+01  0.5459601E-01 -0.1582836E+00
  0.1523320E+02 -0.1500330E+01  0.0000000E+00  0.1653482E+00  0.1899702E+01  0.5340878E-01 -0.1564849E+00
  0.1530690E+02  0.0000000E+00 -0.2568960E-01  0.1631442E+00  0.1895461E+01  0.5204156E-01 -0.1546212E+00
  0.1523320E+02  0.1500340E+01 -0.2568960E-01  0.1617254E+00  0.1888753E+01  0.5055965E-01 -0.1536191E+00
  0.1501280E+02  0.2986230E+01 -0.2568960E-01  0.1603866E+00  0.1880592E+01  0.4889604E-01 -0.1527515E+00
  0.1464780E+02  0.4443360E+01 -0.2568960E-01  0.1584983E+00  0.1872173E+01  0.4704786E-01 -0.1513546E+00
  0.1414170E+02  0.5857700E+01 -0.2568960E-01  0.1557700E+00  0.1864449E+01  0.4508764E-01 -0.1491019E+00
  0.1349950E+02  0.7215620E+01 -0.2568960E-01  0.1521882E+00  0.1857573E+01  0.4304830E-01 -0.1459729E+00
  0.1272720E+02  0.8504060E+01 -0.2568960E-01  0.1482664E+00  0.1850393E+01  0.4091685E-01 -0.1425087E+00
  0.1183240E+02  0.9710600E+01 -0.2568960E-01  0.1448889E+00  0.1840375E+01  0.3858757E-01 -0.1396560E+00
  0.1082360E+02  0.1082360E+02 -0.2568960E-01  0.1412811E+00  0.1829224E+01  0.3610591E-01 -0.1365896E+00
  0.9710590E+01  0.1183240E+02 -0.2568960E-01  0.1357284E+00  0.1820695E+01  0.3356636E-01 -0.1315123E+00
  0.8504060E+01  0.1272720E+02 -0.2568960E-01  0.1307287E+00  0.1808922E+01  0.3083651E-01 -0.1270397E+00
  0.7215620E+01  0.1349950E+02 -0.2568960E-01  0.1236106E+00  0.1800425E+01  0.2813573E-01 -0.1203660E+00
  0.5857700E+01  0.1414170E+02 -0.2568960E-01  0.1129627E+00  0.1798244E+01  0.2547219E-01 -0.1100533E+00
  0.4443360E+01  0.1464780E+02 -0.2568960E-01  0.9779264E-01  0.1807476E+01  0.2293008E-01 -0.9506635E-01
  0.2986230E+01  0.1501280E+02 -0.2568960E-01  0.6790837E-01  0.1890684E+01  0.2135448E-01 -0.6446342E-01
  0.1500340E+01  0.1523320E+02 -0.2568960E-01  0.4947943E-01 -0.2128529E+01  0.2618768E-01  0.4198118E-01
 -0.6690860E-06  0.1530690E+02 -0.2568960E-01  0.1059294E+00 -0.1833175E+01  0.2747577E-01  0.1023040E+00
 -0.1500340E+01  0.1523320E+02 -0.2568960E-01  0.1540366E+00 -0.1747661E+01  0.2710184E-01  0.1516336E+00
 -0.2986230E+01  0.1501280E+02 -0.2568960E-01  0.2100179E+00 -0.1686868E+01  0.2432240E-01  0.2086048E+00
 -0.4443360E+01  0.1464780E+02 -0.2568960E-01  0.2201231E+00 -0.1653656E+01  0.1821855E-01  0.2193679E+00
 -0.5857700E+01  0.1414170E+02 -0.2568960E-01  0.2237404E+00 -0.1627719E+01  0.1272900E-01  0.2233780E+00
 -0.7215620E+01  0.1349950E+02 -0.2568960E-01  0.2264874E+00 -0.1605571E+01  0.7874409E-02  0.2263505E+00
 -0.8504060E+01  0.1272720E+02 -0.2568960E-01  0.2269401E+00 -0.1585828E+01  0.3411081E-02  0.2269145E+00
 -0.9710590E+01  0.1183240E+02 -0.2568960E-01  0.2263561E+00 -0.1567835E+01 -0.6703091E-03  0.2263551E+00
 -0.1082360E+02  0.1082360E+02 -0.2568960E-01  0.2270025E+00 -0.1551989E+01 -0.4268984E-02  0.2269624E+00
 -0.1183240E+02  0.9710590E+01 -0.2568960E-01  0.2266239E+00 -0.1537453E+01 -0.7555096E-02  0.2264979E+00
 -0.1272720E+02  0.8504060E+01 -0.2568960E-01  0.2261989E+00 -0.1524572E+01 -0.1045206E-01  0.2259573E+00
 -0.1349950E+02  0.7215620E+01 -0.2568960E-01  0.2262978E+00 -0.1513552E+01 -0.1294729E-01  0.2259271E+00
 -0.1414170E+02  0.5857690E+01 -0.2568960E-01  0.2263781E+00 -0.1504048E+01 -0.1509910E-01  0.2258740E+00
 -0.1464780E+02  0.4443360E+01 -0.2568960E-01  0.2258761E+00 -0.1495703E+01 -0.1694592E-01  0.2252395E+00
 -0.1501280E+02  0.2986230E+01 -0.2568960E-01  0.2247064E+00 -0.1488497E+01 -0.1847230E-01  0.2239458E+00
 -0.1523320E+02  0.1500340E+01 -0.2568960E-01  0.2230054E+00 -0.1482588E+01 -0.1964552E-01  0.2221384E+00
 -0.1530690E+02 -0.1338170E-05 -0.2568960E-01  0.2213326E+00 -0.1478046E+01 -0.2049921E-01  0.2203813E+00
 -0.1523320E+02 -0.1500340E+01 -0.2568960E-01  0.2203775E+00 -0.1474856E+01 -0.2111077E-01  0.2193641E+00
 -0.1501280E+02 -0.2986230E+01 -0.2568960E-01  0.2195302E+00 -0.1472933E+01 -0.2144976E-01  0.2184798E+00
 -0.1464780E+02 -0.4443360E+01 -0.2568960E-01  0.2181222E+00 -0.1472240E+01 -0.2146253E-01  0.2170637E+00
 -0.1414170E+02 -0.5857700E+01 -0.2568960E-01  0.2158183E+00 -0.1472997E+01 -0.2107325E-01  0.2147870E+00
 -0.1349950E+02 -0.7215620E+01 -0.2568960E-01  0.2125948E+00 -0.1475294E+01 -0.2027235E-01  0.2116261E+00
 -0.1272720E+02 -0.8504060E+01 -0.2568960E-01  0.2090039E+00 -0.1478956E+01 -0.1916797E-01  0.2081231E+00
 -0.1183240E+02 -0.9710600E+01 -0.2568960E-01  0.2060156E+00 -0.1483384E+01 -0.1798543E-01  0.2052290E+00
 -0.1082360E+02 -0.1082360E+02 -0.2568960E-01  0.2028005E+00 -0.1488735E+01 -0.1662341E-01  0.2021180E+00
 -0.9710600E+01 -0.1183240E+02 -0.2568960E-01  0.1975414E+00 -0.1495721E+01 -0.1481656E-01  0.1969849E+00
 -0.8504050E+01 -0.1272720E+02 -0.2568960E-01  0.1928916E+00 -0.1503023E+01 -0.1306285E-01  0.1924488E+00
 -0.7215620E+01 -0.1349950E+02 -0.2568960E-01  0.1860104E+00 -0.1512458E+01 -0.1084537E-01  0.1856940E+00
 -0.5857690E+01 -0.1414170E+02 -0.2568960E-01  0.1754667E+00 -0.1525064E+01 -0.8021669E-02  0.1752833E+00
 -0.4443360E+01 -0.1464780E+02 -0.2568960E-01  0.1602209E+00 -0.1542445E+01 -0.4541869E-02  0.1601565E+00
 -0.2986230E+01 -0.1501280E+02 -0.2568960E-01  0.1293256E+00 -0.1582736E+01  0.1544010E-02  0.1293163E+00
 -0.1500340E+01 -0.1523320E+02 -0.2568960E-01  0.3166741E-01 -0.2356630E+01  0.2240200E-01  0.2238248E-01
  0.1825330E-06 -0.1530690E+02 -0.2568960E-01  0.5218633E-01  0.2325013E+01  0.3573293E-01 -0.3803381E-01
  0.1500340E+01 -0.1523320E+02 -0.2568960E-01  0.9912216E-01  0.2065717E+01  0.4707922E-01 -0.8722815E-01
  0.2986230E+01 -0.1501280E+02 -0.2568960E-01  0.1552947E+00  0.1960263E+01  0.5896458E-01 -0.1436650E+00
  0.4443360E+01 -0.1464780E+02 -0.2568960E-01  0.1653350E+00  0.1940412E+01  0.5972846E-01 -0.1541693E+00
  0.5857700E+01 -0.1414170E+02 -0.2568960E-01  0.1688718E+00  0.1931217E+01  0.5955571E-01 -0.1580216E+00
  0.7215620E+01 -0.1349950E+02 -0.2568960E-01  0.1715149E+00  0.1924754E+01  0.5944927E-01 -0.1608824E+00
  0.8504060E+01 -0.1272720E+02 -0.2568960E-01  0.1718340E+00  0.1921811E+01  0.5908529E-01 -0.1613563E+00
  0.9710600E+01 -0.1183240E+02 -0.2568960E-01  0.1710715E+00  0.1920352E+01  0.5858868E-01 -0.1607260E+00
  0.1082360E+02 -0.1082360E+02 -0.2568960E-01  0.1715097E+00  0.1917963E+01  0.5835360E-01 -0.1612775E+00
  0.1183240E+02 -0.9710590E+01 -0.2568960E-01  0.1708697E+00  0.1916278E+01  0.5786499E-01 -0.1607734E+00
  0.1272720E+02 -0.8504060E+01 -0.2568960E-01  0.1701596E+00  0.1914598E+01  0.5735556E-01 -0.1602018E+00
  0.1349950E+02 -0.7215620E+01 -0.2568960E-01  0.1699585E+00  0.1912213E+01  0.5690598E-01 -0.1601487E+00
  0.1414170E+02 -0.5857700E+01 -0.2568960E-01  0.1697105E+00  0.1909252E+01  0.5634909E-01 -0.1600825E+00
  0.1464780E+02 -0.4443350E+01 -0.2568960E-01  0.1688502E+00  0.1906131E+01  0.5556610E-01 -0.1594453E+00
  0.1501280E+02 -0.2986230E+01 -0.2568960E-01  0.1673018E+00  0.1902971E+01  0.5455706E-01 -0.1581563E+00
  0.1523320E+02 -0.1500330E+01 -0.2568960E-01  0.1652187E+00  0.1899727E+01  0.5337072E-01 -0.1563611E+00
  0.1530690E+02  0.0000000E+00 -0.1027320E+00  0.1627770E+00  0.1895489E+01  0.5192865E-01 -0.1542717E+00
  0.1523320E+02  0.1500340E+01 -0.1027320E+00  0.1613581E+00  0.1888791E+01  0.5045064E-01 -0.1532683E+00
  0.1501280E+02  0.2986230E+01 -0.1027320E+00  0.1600162E+00  0.1880645E+01  0.4879119E-01 -0.1523962E+00
  0.1464780E+02  0.4443360E+01 -0.1027320E+00  0.1581361E+00  0.1872235E+01  0.4694963E-01 -0.1510058E+00
  0.1414170E+02  0.5857700E+01 -0.1027320E+00  0.1554291E+00  0.1864481E+01  0.4499378E-01 -0.1487743E+00
  0.1349950E+02  0.7215620E+01 -0.1027320E+00  0.1518787E+00  0.1857559E+01  0.4295869E-01 -0.1456766E+00
  0.1272720E+02  0.8504060E+01 -0.1027320E+00  0.1479855E+00  0.1850320E+01  0.4082882E-01 -0.1422417E+00
  0.1183240E+02  0.9710600E+01 -0.1027320E+00  0.1446103E+00  0.1840318E+01  0.3850539E-01 -0.1393896E+00
  0.1082360E+02  0.1082360E+02 -0.1027320E+00  0.1409925E+00  0.1829202E+01  0.3602919E-01 -0.1363113E+00
  0.9710590E+01  0.1183240E+02 -0.1027320E+00  0.1354905E+00  0.1820579E+01  0.3349229E-01 -0.1312857E+00
  0.8504060E+01  0.1272720E+02 -0.1027320E+00  0.1304798E+00  0.1808865E+01  0.3077060E-01 -0.1267996E+00
  0.7215620E+01  0.1349950E+02 -0.1027320E+00  0.1233801E+00  0.1800359E+01  0.2807536E-01 -0.1201433E+00
  0.5857700E+01  0.1414170E+02 -0.1027320E+00  0.1127567E+00  0.1798171E+01  0.2541763E-01 -0.1098545E+00
  0.4443360E+01  0.1464780E+02 -0.1027320E+00  0.9764503E-01  0.1807315E+01  0.2288015E-01 -0.9492655E-01
  0.2986230E+01  0.1501280E+02 -0.1027320E+00  0.6777573E-01  0.1890686E+01  0.2131288E-01 -0.6433747E-01
  0.1500340E+01  0.1523320E+02 -0.1027320E+00  0.4928038E-01 -0.2129627E+01  0.2612820E-01  0.4178364E-01
 -0.6690860E-06  0.1530690E+02 -0.1027320E+00  0.1057071E+00 -0.1833194E+01  0.2742012E-01  0.1020889E+00
 -0.1500340E+01  0.1523320E+02 -0.1027320E+00  0.1537747E+00 -0.1747613E+01  0.2704854E-01  0.1513772E+00
 -0.2986230E+01  0.1501280E+02 -0.1027320E+00  0.2096321E+00 -0.1686882E+01  0.2428075E-01  0.2082212E+00
 -0.4443360E+01  0.1464780E+02 -0.1027320E+00  0.2197194E+00 -0.1653665E+01  0.1818701E-01  0.2189654E+00
 -0.5857700E+01  0.1414170E+02 -0.1027320E+00  0.2233144E+00 -0.1627733E+01  0.1270800E-01  0.2229525E+00
 -0.7215620E+01  0.1349950E+02 -0.1027320E+00  0.2260303E+00 -0.1605580E+01  0.7860666E-02  0.2258936E+00
 -0.8504060E+01  0.1272720E+02 -0.1027320E+00  0.2264832E+00 -0.1585839E+01  0.3406787E-02  0.2264575E+00
 -0.9710590E+01  0.1183240E+02 -0.1027320E+00  0.2259203E+00 -0.1567855E+01 -0.6645320E-03  0.2259194E+00
 -0.1082360E+02  0.1082360E+02 -0.1027320E+00  0.2265320E+00 -0.1552004E+01 -0.4256845E-02  0.2264920E+00
 -0.1183240E+02  0.9710590E+01 -0.1027320E+00  0.2261644E+00 -0.1537473E+01 -0.7535105E-02  0.2260389E+00
 -0.1272720E+02  0.8504060E+01 -0.1027320E+00  0.2257433E+00 -0.1524591E+01 -0.1042690E-01  0.2255024E+00
 -0.1349950E+02  0.7215620E+01 -0.1027320E+00  0.2258262E+00 -0.1513566E+01 -0.1291696E-01  0.2254564E+00
 -0.1414170E+02  0.5857690E+01 -0.1027320E+00  0.2258831E+00 -0.1504050E+01 -0.1506563E-01  0.2253802E+00
 -0.1464780E+02  0.4443360E+01 -0.1027320E+00  0.2253662E+00 -0.1495699E+01 -0.1690847E-01  0.2247310E+00
 -0.1501280E+02  0.2986230E+01 -0.1027320E+00  0.2241948E+00 -0.1488492E+01 -0.1843126E-01  0.2234358E+00
 -0.1523320E+02  0.1500340E+01 -0.1027320E+00  0.2225018E+00 -0.1482580E+01 -0.1960287E-01  0.2216366E+00
 -0.1530690E+02 -0.1338170E-05 -0.1027320E+00  0.2208389E+00 -0.1478047E+01 -0.2045342E-01  0.2198897E+00
 -0.1523320E+02 -0.1500340E+01 -0.1027320E+00  0.2198805E+00 -0.1474857E+01 -0.2106285E-01  0.2188694E+00
 -0.1501280E+02 -0.2986230E+01 -0.1027320E+00  0.2190293E+00 -0.1472941E+01 -0.2139899E-01  0.2179815E+00
 -0.1464780E+02 -0.4443360E+01 -0.1027320E+00  0.2176273E+00 -0.1472257E+01 -0.2141010E-01  0.2165716E+00
 -0.1414170E+02 -0.5857700E+01 -0.1027320E+00  0.2153442E+00 -0.1473008E+01 -0.2102451E-01  0.2143154E+00
 -0.1349950E+02 -0.7215620E+01 -0.1027320E+00  0.2121537E+00 -0.1475293E+01 -0.2023051E-01  0.2111869E+00
 -0.1272720E+02 -0.8504060E+01 -0.1027320E+00  0.2085928E+00 -0.1478945E+01 -0.1913252E-01  0.2077135E+00
 -0.1183240E+02 -0.9710600E+01 -0.1027320E+00  0.2056048E+00 -0.1483380E+01 -0.1795034E-01  0.2048197E+00
 -0.1082360E+02 -0.1082360E+02 -0.1027320E+00  0.2023775E+00 -0.1488745E+01 -0.1658673E-01  0.2016966E+00
 -0.9710600E+01 -0.1183240E+02 -0.1027320E+00  0.1971708E+00 -0.1495699E+01 -0.1479300E-01  0.1966151E+00
 -0.8504050E+01 -0.1272720E+02 -0.1027320E+00  0.1925081E+00 -0.1503018E+01 -0.1303789E-01  0.1920661E+00
 -0.7215620E+01 -0.1349950E+02 -0.1027320E+00  0.1856450E+00 -0.1512447E+01 -0.1082603E-01  0.1853291E+00
 -0.5857690E+01 -0.1414170E+02 -0.1027320E+00  0.1751239E+00 -0.1525047E+01 -0.8008950E-02  0.1749406E+00
 -0.4443360E+01 -0.1464780E+02 -0.1027320E+00  0.1599385E+00 -0.1542395E+01 -0.4541820E-02  0.1598740E+00
 -0.2986230E+01 -0.1501280E+02 -0.1027320E+00  0.1290580E+00 -0.1582725E+01  0.1539505E-02  0.1290489E+00
 -0.1500340E+01 -0.1523320E+02 -0.1027320E+00  0.3166242E-01 -0.2353922E+01  0.2233778E-01  0.2243952E-01
  0.1825330E-06 -0.1530690E+02 -0.1027320E+00  0.5208219E-01  0.2324987E+01  0.3566064E-01 -0.3795884E-01
  0.1500340E+01 -0.1523320E+02 -0.1027320E+00  0.9898014E-01  0.2065521E+01  0.4699470E-01 -0.8711237E-01
  0.2986230E+01 -0.1501280E+02 -0.1027320E+00  0.1550290E+00  0.1960184E+01  0.5885244E-01 -0.1434238E+00
  0.4443360E+01 -0.1464780E+02 -0.1027320E+00  0.1650520E+00  0.1940349E+01  0.5961656E-01 -0.1539091E+00
  0.5857700E+01 -0.1414170E+02 -0.1027320E+00  0.1685667E+00  0.1931164E+01  0.5943968E-01 -0.1577392E+00
  0.7215620E+01 -0.1349950E+02 -0.1027320E+00  0.1711791E+00  0.1924740E+01  0.5933069E-01 -0.1605682E+00
  0.8504060E+01 -0.1272720E+02 -0.1027320E+00  0.1714987E+00  0.1921790E+01  0.5896659E-01 -0.1610427E+00
  0.9710600E+01 -0.1183240E+02 -0.1027320E+00  0.1707582E+00  0.1920313E+01  0.5847500E-01 -0.1604339E+00
  0.1082360E+02 -0.1082360E+02 -0.1027320E+00  0.1711617E+00  0.1917950E+01  0.5823312E-01 -0.1609510E+00
  0.1183240E+02 -0.9710590E+01 -0.1027320E+00  0.1705331E+00  0.1916262E+01  0.5774838E-01 -0.1604577E+00
  0.1272720E+02 -0.8504060E+01 -0.1027320E+00  0.1698276E+00  0.1914574E+01  0.5723978E-01 -0.1598907E+00
  0.1349950E+02 -0.7215620E+01 -0.1027320E+00  0.1696105E+00  0.1912204E+01  0.5678795E-01 -0.1598213E+00
  0.1414170E+02 -0.5857700E+01 -0.1027320E+00  0.1693402E+00  0.1909263E+01  0.5622799E-01 -0.1597327E+00
  0.1464780E+02 -0.4443350E+01 -0.1027320E+00  0.1684645E+00  0.1906162E+01  0.5544402E-01 -0.1590793E+00
  0.1501280E+02 -0.2986230E+01 -0.1027320E+00  0.1669157E+00  0.1903008E+01  0.5443704E-01 -0.1577893E+00
  0.1523320E+02 -0.1500330E+01 -0.1027320E+00  0.1648417E+00  0.1899760E+01  0.5325415E-01 -0.1560024E+00
  0.1530690E+02  0.0000000E+00 -0.2310450E+00  0.1621662E+00  0.1895545E+01  0.5174244E-01 -0.1536899E+00
  0.1523320E+02  0.1500340E+01 -0.2310450E+00  0.1607452E+00  0.1888867E+01  0.5027065E-01 -0.1526822E+00
  0.1501280E+02  0.2986230E+01 -0.2310450E+00  0.1593988E+00  0.1880750E+01  0.4861899E-01 -0.1518031E+00
  0.1464780E+02  0.4443360E+01 -0.2310450E+00  0.1575312E+00  0.1872338E+01  0.4678566E-01 -0.1504233E+00
  0.1414170E+02  0.5857700E+01 -0.2310450E+00  0.1548583E+00  0.1864544E+01  0.4483792E-01 -0.1482250E+00
  0.1349950E+02  0.7215620E+01 -0.2310450E+00  0.1513612E+00  0.1857533E+01  0.4280844E-01 -0.1451814E+00
  0.1272720E+02  0.8504060E+01 -0.2310450E+00  0.1475163E+00  0.1850212E+01  0.4068407E-01 -0.1417952E+00
  0.1183240E+02  0.9710600E+01 -0.2310450E+00  0.1441430E+00  0.1840233E+01  0.3836925E-01 -0.1389424E+00
  0.1082360E+02  0.1082360E+02 -0.2310450E+00  0.1405094E+00  0.1829184E+01  0.3590328E-01 -0.1358449E+00
  0.9710590E+01  0.1183240E+02 -0.2310450E+00  0.1350909E+00  0.1820416E+01  0.3337227E-01 -0.1309039E+00
  0.8504060E+01  0.1272720E+02 -0.2310450E+00  0.1300632E+00  0.1808789E+01  0.3066274E-01 -0.1263971E+00
  0.7215620E+01  0.1349950E+02 -0.2310450E+00  0.1229927E+00  0.1800255E+01  0.2797474E-01 -0.1197690E+00
  0.5857700E+01  0.1414170E+02 -0.2310450E+00  0.1124120E+00  0.1798061E+01  0.2532799E-01 -0.1095215E+00
  0.4443360E+01  0.1464780E+02 -0.2310450E+00  0.9738238E-01  0.1807095E+01  0.2279780E-01 -0.9467623E-01
  0.2986230E+01  0.1501280E+02 -0.2310450E+00  0.6758605E-01  0.1890458E+01  0.2123858E-01 -0.6416227E-01
  0.1500340E+01  0.1523320E+02 -0.2310450E+00  0.4906283E-01 -0.2130229E+01  0.2603793E-01  0.4158350E-01
 -0.6690860E-06  0.1530690E+02 -0.2310450E+00  0.1053343E+00 -0.1833235E+01  0.2732760E-01  0.1017277E+00
 -0.1500340E+01  0.1523320E+02 -0.2310450E+00  0.1533054E+00 -0.1747585E+01  0.2696170E-01  0.1509159E+00
 -0.2986230E+01  0.1501280E+02 -0.2310450E+00  0.2090023E+00 -0.1686883E+01  0.2420794E-01  0.2075956E+00
 -0.4443360E+01  0.1464780E+02 -0.2310450E+00  0.2190400E+00 -0.1653682E+01  0.1813441E-01  0.2182880E+00
 -0.5857700E+01  0.1414170E+02 -0.2310450E+00  0.2226044E+00 -0.1627754E+01  0.1267226E-01  0.2222434E+00
 -0.7215620E+01  0.1349950E+02 -0.2310450E+00  0.2252688E+00 -0.1605604E+01  0.7839430E-02  0.2251323E+00
 -0.8504060E+01  0.1272720E+02 -0.2310450E+00  0.2257215E+00 -0.1585860E+01  0.3400043E-02  0.2256959E+00
 -0.9710590E+01  0.1183240E+02 -0.2310450E+00  0.2251931E+00 -0.1567886E+01 -0.6553775E-03  0.2251921E+00
 -0.1082360E+02  0.1082360E+02 -0.2310450E+00  0.2257462E+00 -0.1552018E+01 -0.4238934E-02  0.2257064E+00
 -0.1183240E+02  0.9710590E+01 -0.2310450E+00  0.2253974E+00 -0.1537500E+01 -0.7503552E-02  0.2252725E+00
 -0.1272720E+02  0.8504060E+01 -0.2310450E+00  0.2249827E+00 -0.1524625E+01 -0.1038406E-01  0.2247429E+00
 -0.1349950E+02  0.7215620E+01 -0.2310450E+00  0.2250381E+00 -0.1513587E+01 -0.1286728E-01  0.2246699E+00
 -0.1414170E+02  0.5857690E+01 -0.2310450E+00  0.2250579E+00 -0.1504053E+01 -0.1500994E-01  0.2245568E+00
 -0.1464780E+02  0.4443360E+01 -0.2310450E+00  0.2245172E+00 -0.1495693E+01 -0.1684624E-01  0.2238843E+00
 -0.1501280E+02  0.2986230E+01 -0.2310450E+00  0.2233421E+00 -0.1488484E+01 -0.1836302E-01  0.2225859E+00
 -0.1523320E+02  0.1500340E+01 -0.2310450E+00  0.2216635E+00 -0.1482581E+01 -0.1952878E-01  0.2208016E+00
 -0.1530690E+02 -0.1338170E-05 -0.2310450E+00  0.2200149E+00 -0.1478047E+01 -0.2037708E-01  0.2190692E+00
 -0.1523320E+02 -0.1500340E+01 -0.2310450E+00  0.2190522E+00 -0.1474867E+01 -0.2098120E-01  0.2180450E+00
 -0.1501280E+02 -0.2986230E+01 -0.2310450E+00  0.2181935E+00 -0.1472955E+01 -0.2131429E-01  0.2171500E+00
 -0.1464780E+02 -0.4443360E+01 -0.2310450E+00  0.2168017E+00 -0.1472283E+01 -0.2132342E-01  0.2157505E+00
 -0.1414170E+02 -0.5857700E+01 -0.2310450E+00  0.2145525E+00 -0.1473035E+01 -0.2094144E-01  0.2135281E+00
 -0.1349950E+02 -0.7215620E+01 -0.2310450E+00  0.2114167E+00 -0.1475312E+01 -0.2015628E-01  0.2104536E+00
 -0.1272720E+02 -0.8504060E+01 -0.2310450E+00  0.2079048E+00 -0.1478950E+01 -0.1906841E-01  0.2070285E+00
 -0.1183240E+02 -0.9710600E+01 -0.2310450E+00  0.2049174E+00 -0.1483373E+01 -0.1789182E-01  0.2041348E+00
 -0.1082360E+02 -0.1082360E+02 -0.2310450E+00  0.2016700E+00 -0.1488745E+01 -0.1652869E-01  0.2009915E+00
 -0.9710600E+01 -0.1183240E+02 -0.2310450E+00  0.1965503E+00 -0.1495674E+01 -0.1475133E-01  0.1959959E+00
 -0.8504050E+01 -0.1272720E+02 -0.2310450E+00  0.1918661E+00 -0.1503016E+01 -0.1299478E-01  0.1914255E+00
 -0.7215620E+01 -0.1349950E+02 -0.2310450E+00  0.1850336E+00 -0.1512430E+01 -0.1079358E-01  0.1847185E+00
 -0.5857690E+01 -0.1414170E+02 -0.2310450E+00  0.1745547E+00 -0.1525011E+01 -0.7989217E-02  0.1743718E+00
 -0.4443360E+01 -0.1464780E+02 -0.2310450E+00  0.1594521E+00 -0.1542333E+01 -0.4537940E-02  0.1593876E+00
 -0.2986230E+01 -0.1501280E+02 -0.2310450E+00  0.1286476E+00 -0.1582658E+01  0.1525963E-02  0.1286386E+00
 -0.1500340E+01 -0.1523320E+02 -0.2310450E+00  0.3157847E-01 -0.2352785E+01  0.2225309E-01  0.2240536E-01
  0.1825330E-06 -0.1530690E+02 -0.2310450E+00  0.5190400E-01  0.2324961E+01  0.3553765E-01 -0.3782989E-01
  0.1500340E+01 -0.1523320E+02 -0.2310450E+00  0.9870957E-01  0.2065280E+01  0.4684534E-01 -0.8688551E-01
  0.2986230E+01 -0.1501280E+02 -0.2310450E+00  0.1545991E+00  0.1960050E+01  0.5867006E-01 -0.1430339E+00
  0.4443360E+01 -0.1464780E+02 -0.2310450E+00  0.1645728E+00  0.1940247E+01  0.5942775E-01 -0.1534684E+00
  0.5857700E+01 -0.1414170E+02 -0.2310450E+00  0.1680565E+00  0.1931077E+01  0.5924617E-01 -0.1572670E+00
  0.7215620E+01 -0.1349950E+02 -0.2310450E+00  0.1706182E+00  0.1924702E+01  0.5913015E-01 -0.1600444E+00
  0.8504060E+01 -0.1272720E+02 -0.2310450E+00  0.1709382E+00  0.1921752E+01  0.5876774E-01 -0.1605186E+00
  0.9710600E+01 -0.1183240E+02 -0.2310450E+00  0.1702331E+00  0.1920240E+01  0.5828354E-01 -0.1599448E+00
  0.1082360E+02 -0.1082360E+02 -0.2310450E+00  0.1705780E+00  0.1917929E+01  0.5803110E-01 -0.1604034E+00
  0.1183240E+02 -0.9710590E+01 -0.2310450E+00  0.1699699E+00  0.1916228E+01  0.5755234E-01 -0.1599297E+00
  0.1272720E+02 -0.8504060E+01 -0.2310450E+00  0.1692728E+00  0.1914546E+01  0.5704834E-01 -0.1593699E+00
  0.1349950E+02 -0.7215620E+01 -0.2310450E+00  0.1690290E+00  0.1912189E+01  0.5659080E-01 -0.1592742E+00
  0.1414170E+02 -0.5857700E+01 -0.2310450E+00  0.1687219E+00  0.1909287E+01  0.5602647E-01 -0.1591481E+00
  0.1464780E+02 -0.4443350E+01 -0.2310450E+00  0.1678243E+00  0.1906223E+01  0.5524306E-01 -0.1584715E+00
  0.1501280E+02 -0.2986230E+01 -0.2310450E+00  0.1662732E+00  0.1903077E+01  0.5423827E-01 -0.1571782E+00
  0.1523320E+02 -0.1500330E+01 -0.2310450E+00  0.1642154E+00  0.1899823E+01  0.5306165E-01 -0.1554065E+00
  0.1530690E+02  0.0000000E+00 -0.4105000E+00  0.1613258E+00  0.1895610E+01  0.5148421E-01 -0.1528901E+00
  0.1523320E+02  0.1500340E+01 -0.4105000E+00  0.1599001E+00  0.1888961E+01  0.5002052E-01 -0.1518750E+00
  0.1501280E+02  0.2986230E+01 -0.4105000E+00  0.1585489E+00  0.1880888E+01  0.4838053E-01 -0.1509871E+00
  0.1464780E+02  0.4443360E+01 -0.4105000E+00  0.1566976E+00  0.1872477E+01  0.4655888E-01 -0.1496209E+00
  0.1414170E+02  0.5857700E+01 -0.4105000E+00  0.1540737E+00  0.1864625E+01  0.4462268E-01 -0.1474704E+00
  0.1349950E+02  0.7215620E+01 -0.4105000E+00  0.1506511E+00  0.1857487E+01  0.4260103E-01 -0.1445022E+00
  0.1272720E+02  0.8504060E+01 -0.4105000E+00  0.1468714E+00  0.1850047E+01  0.4048288E-01 -0.1411819E+00
  0.1183240E+02  0.9710600E+01 -0.4105000E+00  0.1434988E+00  0.1840109E+01  0.3818056E-01 -0.1383262E+00
  0.1082360E+02  0.1082360E+02 -0.4105000E+00  0.1398398E+00  0.1829157E+01  0.3572845E-01 -0.1351986E+00
  0.9710590E+01  0.1183240E+02 -0.4105000E+00  0.1345361E+00  0.1820193E+01  0.3320616E-01 -0.1303737E+00
  0.8504060E+01  0.1272720E+02 -0.4105000E+00  0.1294785E+00  0.1808708E+01  0.3051469E-01 -0.1258314E+00
  0.7215620E+01  0.1349950E+02 -0.4105000E+00  0.1224252E+00  0.1800192E+01  0.2783814E-01 -0.1192182E+00
  0.5857700E+01  0.1414170E+02 -0.4105000E+00  0.1119026E+00  0.1797988E+01  0.2520517E-01 -0.1090271E+00
  0.4443360E+01  0.1464780E+02 -0.4105000E+00  0.9695362E-01  0.1806996E+01  0.2268802E-01 -0.9426164E-01
  0.2986230E+01  0.1501280E+02 -0.4105000E+00  0.6728954E-01  0.1890347E+01  0.2113830E-01 -0.6388313E-01
  0.1500340E+01  0.1523320E+02 -0.4105000E+00  0.4881146E-01 -0.2130486E+01  0.2591516E-01  0.4136379E-01
 -0.6690860E-06  0.1530690E+02 -0.4105000E+00  0.1047854E+00 -0.1833320E+01  0.2719372E-01  0.1011952E+00
 -0.1500340E+01  0.1523320E+02 -0.4105000E+00  0.1525628E+00 -0.1747595E+01  0.2683262E-01  0.1501847E+00
 -0.2986230E+01  0.1501280E+02 -0.4105000E+00  0.2080449E+00 -0.1686890E+01  0.2409849E-01  0.2066445E+00
 -0.4443360E+01  0.1464780E+02 -0.4105000E+00  0.2180270E+00 -0.1653690E+01  0.1805246E-01  0.2172783E+00
 -0.5857700E+01  0.1414170E+02 -0.4105000E+00  0.2215857E+00 -0.1627780E+01  0.1262002E-01  0.2212260E+00
 -0.7215620E+01  0.1349950E+02 -0.4105000E+00  0.2241845E+00 -0.1605623E+01  0.7805925E-02  0.2240486E+00
 -0.8504060E+01  0.1272720E+02 -0.4105000E+00  0.2246602E+00 -0.1585887E+01  0.3390145E-02  0.2246346E+00
 -0.9710590E+01  0.1183240E+02 -0.4105000E+00  0.2241866E+00 -0.1567930E+01 -0.6426634E-03  0.2241857E+00
 -0.1082360E+02  0.1082360E+02 -0.4105000E+00  0.2246603E+00 -0.1552039E+01 -0.4213739E-02  0.2246208E+00