 VARIABLES="X" "Y" "Z" "abs(eta) (m)" "angle(phi) (rad)" "PRE1" "PRE2"
ZONE N=   3200 ,E =    3136 ,F=FEPOINT,ET=QUADRILATERAL
  0.1530690E+02  0.0000000E+00  0.0000000E+00  0.4609669E-01  0.2147666E+01  0.2514126E-01 -0.3863706E-01
  0.1523320E+02  0.1500340E+01  0.0000000E+00  0.4868932E-01  0.2140817E+01  0.2627515E-01 -0.4099105E-01
  0.1501280E+02  0.2986230E+01  0.0000000E+00  0.5125855E-01  0.2134979E+01  0.2740923E-01 -0.4331481E-01
  0.1464780E+02  0.4443360E+01  0.0000000E+00  0.5369512E-01  0.2132128E+01  0.2858267E-01 -0.4545544E-01
  0.1414170E+02  0.5857700E+01  0.0000000E+00  0.5604287E-01  0.2131238E+01  0.2979019E-01 -0.4746944E-01
  0.1349950E+02  0.7215620E+01  0.0000000E+00  0.5838442E-01  0.2131444E+01  0.3104501E-01 -0.4944642E-01
  0.1272720E+02  0.8504060E+01  0.0000000E+00  0.6093739E-01  0.2131431E+01  0.3240184E-01 -0.5160897E-01
  0.1183240E+02  0.9710600E+01  0.0000000E+00  0.6364693E-01  0.2130982E+01  0.3381838E-01 -0.5391892E-01
  0.1082360E+02  0.1082360E+02  0.0000000E+00  0.6645168E-01  0.2131059E+01  0.3531298E-01 -0.5629226E-01
  0.9710590E+01  0.1183240E+02  0.0000000E+00  0.6947300E-01  0.2132380E+01  0.3699626E-01 -0.5880284E-01
  0.8504060E+01  0.1272720E+02  0.0000000E+00  0.7333220E-01  0.2131729E+01  0.3901096E-01 -0.6209474E-01
  0.7215620E+01  0.1349950E+02  0.0000000E+00  0.7752057E-01  0.2132449E+01  0.4128637E-01 -0.6561154E-01
  0.5857700E+01  0.1414170E+02  0.0000000E+00  0.8168525E-01  0.2136694E+01  0.4379749E-01 -0.6895114E-01
  0.4443360E+01  0.1464780E+02  0.0000000E+00  0.8790932E-01  0.2140663E+01  0.4742885E-01 -0.7401724E-01
  0.2986230E+01  0.1501280E+02  0.0000000E+00  0.9746980E-01  0.2147639E+01  0.5315809E-01 -0.8169810E-01
  0.1500340E+01  0.1523320E+02  0.0000000E+00  0.1084454E+00  0.2176273E+01  0.6172214E-01 -0.8916719E-01
 -0.6690860E-06  0.1530690E+02  0.0000000E+00  0.9740540E-01  0.2225616E+01  0.5932150E-01 -0.7725783E-01
 -0.1500340E+01  0.1523320E+02  0.0000000E+00  0.6928347E-01  0.2366166E+01  0.4947687E-01 -0.4849988E-01
 -0.2986230E+01  0.1501280E+02  0.0000000E+00  0.3162819E-01 -0.2456277E+01  0.2448715E-01  0.2001804E-01
 -0.4443360E+01  0.1464780E+02  0.0000000E+00  0.4641752E-01 -0.1928470E+01  0.1625059E-01  0.4347993E-01
 -0.5857700E+01  0.1414170E+02  0.0000000E+00  0.5715296E-01 -0.1780817E+01  0.1191527E-01  0.5589711E-01
 -0.7215620E+01  0.1349950E+02  0.0000000E+00  0.6500025E-01 -0.1708762E+01  0.8939374E-02  0.6438261E-01
 -0.8504060E+01  0.1272720E+02  0.0000000E+00  0.7105760E-01 -0.1663609E+01  0.6585585E-02  0.7075176E-01
 -0.9710590E+01  0.1183240E+02  0.0000000E+00  0.7576842E-01 -0.1633548E+01  0.4751496E-02  0.7561929E-01
 -0.1082360E+02  0.1082360E+02  0.0000000E+00  0.8041845E-01 -0.1608262E+01  0.3012216E-02  0.8036202E-01
 -0.1183240E+02  0.9710590E+01  0.0000000E+00  0.8380431E-01 -0.1591876E+01  0.1766415E-02  0.8378569E-01
 -0.1272720E+02  0.8504060E+01  0.0000000E+00  0.8702783E-01 -0.1578081E+01  0.6339852E-03  0.8702552E-01
 -0.1349950E+02  0.7215620E+01  0.0000000E+00  0.9053359E-01 -0.1565265E+01 -0.5007395E-03  0.9053221E-01
 -0.1414170E+02  0.5857690E+01  0.0000000E+00  0.9372915E-01 -0.1556052E+01 -0.1381946E-02  0.9371896E-01
 -0.1464780E+02  0.4443360E+01  0.0000000E+00  0.9641100E-01 -0.1550622E+01 -0.1944887E-02  0.9639138E-01
 -0.1501280E+02  0.2986230E+01  0.0000000E+00  0.9863966E-01 -0.1548350E+01 -0.2213885E-02  0.9861481E-01
 -0.1523320E+02  0.1500340E+01  0.0000000E+00  0.1006433E+00 -0.1548374E+01 -0.2256490E-02  0.1006180E+00
 -0.1530690E+02 -0.1338170E-05  0.0000000E+00  0.1027325E+00 -0.1549849E+01 -0.2151815E-02  0.1027100E+00
 -0.1523320E+02 -0.1500340E+01  0.0000000E+00  0.1050962E+00 -0.1551703E+01 -0.2006480E-02  0.1050770E+00
 -0.1501280E+02 -0.2986230E+01  0.0000000E+00  0.1074262E+00 -0.1555145E+01 -0.1681347E-02  0.1074130E+00
 -0.1464780E+02 -0.4443360E+01  0.0000000E+00  0.1095658E+00 -0.1560709E+01 -0.1105194E-02  0.1095602E+00
 -0.1414170E+02 -0.5857700E+01  0.0000000E+00  0.1115732E+00 -0.1568380E+01 -0.2696430E-03  0.1115729E+00
 -0.1349950E+02 -0.7215620E+01  0.0000000E+00  0.1135437E+00 -0.1578179E+01  0.8382705E-03  0.1135406E+00
 -0.1272720E+02 -0.8504060E+01  0.0000000E+00  0.1157059E+00 -0.1590225E+01  0.2247824E-02  0.1156841E+00
 -0.1183240E+02 -0.9710600E+01  0.0000000E+00  0.1180341E+00 -0.1603747E+01  0.3888579E-02  0.1179700E+00
 -0.1082360E+02 -0.1082360E+02  0.0000000E+00  0.1204511E+00 -0.1619010E+01  0.5805194E-02  0.1203111E+00
 -0.9710600E+01 -0.1183240E+02  0.0000000E+00  0.1230462E+00 -0.1637192E+01  0.8163774E-02  0.1227751E+00
 -0.8504050E+01 -0.1272720E+02  0.0000000E+00  0.1264853E+00 -0.1657774E+01  0.1098752E-01  0.1260072E+00
 -0.7215620E+01 -0.1349950E+02  0.0000000E+00  0.1302328E+00 -0.1680923E+01  0.1431315E-01  0.1294439E+00
 -0.5857690E+01 -0.1414170E+02  0.0000000E+00  0.1339212E+00 -0.1706883E+01  0.1816869E-01  0.1326831E+00
 -0.4443360E+01 -0.1464780E+02  0.0000000E+00  0.1395758E+00 -0.1739070E+01  0.2337622E-01  0.1376044E+00
 -0.2986230E+01 -0.1501280E+02  0.0000000E+00  0.1483637E+00 -0.1782762E+01  0.3121306E-01  0.1450432E+00
 -0.1500340E+01 -0.1523320E+02  0.0000000E+00  0.1583815E+00 -0.1855444E+01  0.4447651E-01  0.1520083E+00
  0.1825330E-06 -0.1530690E+02  0.0000000E+00  0.1474342E+00 -0.1890165E+01  0.4628953E-01  0.1399790E+00
  0.1500340E+01 -0.1523320E+02  0.0000000E+00  0.1186849E+00 -0.1925034E+01  0.4116893E-01  0.1113159E+00
  0.2986230E+01 -0.1501280E+02  0.0000000E+00  0.4901898E-01 -0.2059798E+01  0.2302641E-01  0.4327406E-01
  0.4443360E+01 -0.1464780E+02  0.0000000E+00  0.2703687E-01 -0.2306712E+01  0.1814893E-01  0.2004017E-01
  0.5857700E+01 -0.1414170E+02  0.0000000E+00  0.1823621E-01 -0.2702203E+01  0.1650398E-01  0.7757450E-02
  0.7215620E+01 -0.1349950E+02  0.0000000E+00  0.1604713E-01  0.3101940E+01  0.1603452E-01 -0.6361397E-03
  0.8504060E+01 -0.1272720E+02  0.0000000E+00  0.1745921E-01  0.2733331E+01  0.1602428E-01 -0.6931563E-02
  0.9710600E+01 -0.1183240E+02  0.0000000E+00  0.2018359E-01  0.2520640E+01  0.1641582E-01 -0.1174302E-01
  0.1082360E+02 -0.1082360E+02  0.0000000E+00  0.2357833E-01  0.2370098E+01  0.1690258E-01 -0.1643899E-01
  0.1183240E+02 -0.9710590E+01  0.0000000E+00  0.2660142E-01  0.2300519E+01  0.1773419E-01 -0.1982761E-01
  0.1272720E+02 -0.8504060E+01  0.0000000E+00  0.2960650E-01  0.2249977E+01  0.1859749E-01 -0.2303646E-01
  0.1349950E+02 -0.7215620E+01  0.0000000E+00  0.3285287E-01  0.2202401E+01  0.1939767E-01 -0.2651492E-01
  0.1414170E+02 -0.5857700E+01  0.0000000E+00  0.3597716E-01  0.2171422E+01  0.2033280E-01 -0.2968053E-01
  0.1464780E+02 -0.4443350E+01  0.0000000E+00  0.3879305E-01  0.2155955E+01  0.2142664E-01 -0.3233883E-01
  0.1501280E+02 -0.2986230E+01  0.0000000E+00  0.4131023E-01  0.2150820E+01  0.2263983E-01 -0.3455392E-01
  0.1523320E+02 -0.1500330E+01  0.0000000E+00  0.4367157E-01  0.2149882E+01  0.2389964E-01 -0.3655152E-01
  0.1530690E+02  0.0000000E+00 -0.2568960E-01  0.4606069E-01  0.2147696E+01  0.2512280E-01 -0.3860611E-01
  0.1523320E+02  0.1500340E+01 -0.2568960E-01  0.4865045E-01  0.2140865E+01  0.2625616E-01 -0.4095705E-01
  0.1501280E+02  0.2986230E+01 -0.2568960E-01  0.5121782E-01  0.2135022E+01  0.2738932E-01 -0.4327921E-01
  0.1464780E+02  0.4443360E+01 -0.2568960E-01  0.5365384E-01  0.2132171E+01  0.2856266E-01 -0.4541926E-01
  0.1414170E+02  0.5857700E+01 -0.2568960E-01  0.5600157E-01  0.2131266E+01  0.2976955E-01 -0.4743364E-01
  0.1349950E+02  0.7215620E+01 -0.2568960E-01  0.5834385E-01  0.2131455E+01  0.3102399E-01 -0.4941170E-01
  0.1272720E+02  0.8504060E+01 -0.2568960E-01  0.6089557E-01  0.2131432E+01  0.3237967E-01 -0.5157351E-01
  0.1183240E+02  0.9710600E+01 -0.2568960E-01  0.6360404E-01  0.2130987E+01  0.3379584E-01 -0.5388242E-01
  0.1082360E+02  0.1082360E+02 -0.2568960E-01  0.6640689E-01  0.2131071E+01  0.3528988E-01 -0.5625389E-01
  0.9710590E+01  0.1183240E+02 -0.2568960E-01  0.6942885E-01  0.2132371E+01  0.3697222E-01 -0.5876580E-01
  0.8504060E+01  0.1272720E+02 -0.2568960E-01  0.7328413E-01  0.2131727E+01  0.3898528E-01 -0.6205411E-01
  0.7215620E+01  0.1349950E+02 -0.2568960E-01  0.7746930E-01  0.2132439E+01  0.4125836E-01 -0.6556859E-01
  0.5857700E+01  0.1414170E+02 -0.2568960E-01  0.8163767E-01  0.2136683E+01  0.4377122E-01 -0.6891146E-01
  0.4443360E+01  0.1464780E+02 -0.2568960E-01  0.8785694E-01  0.2140639E+01  0.4739879E-01 -0.7397430E-01
  0.2986230E+01  0.1501280E+02 -0.2568960E-01  0.9742206E-01  0.2147601E+01  0.5312898E-01 -0.8166008E-01
  0.1500340E+01  0.1523320E+02 -0.2568960E-01  0.1083759E+00  0.2176247E+01  0.6168024E-01 -0.8911165E-01
 -0.6690860E-06  0.1530690E+02 -0.2568960E-01  0.9733471E-01  0.2225620E+01  0.5927871E-01 -0.7720155E-01
 -0.1500340E+01  0.1523320E+02 -0.2568960E-01  0.6922078E-01  0.2366283E+01  0.4943780E-01 -0.4845019E-01
 -0.2986230E+01  0.1501280E+02 -0.2568960E-01  0.3160425E-01 -0.2456536E+01  0.2447381E-01  0.1999654E-01
 -0.4443360E+01  0.1464780E+02 -0.2568960E-01  0.4638948E-01 -0.1928411E+01  0.1623821E-01  0.4345462E-01
 -0.5857700E+01  0.1414170E+02 -0.2568960E-01  0.5711224E-01 -0.1780849E+01  0.1190857E-01  0.5585690E-01
 -0.7215620E+01  0.1349950E+02 -0.2568960E-01  0.6496084E-01 -0.1708718E+01  0.8931138E-02  0.6434396E-01
 -0.8504060E+01  0.1272720E+02 -0.2568960E-01  0.7100974E-01 -0.1663607E+01  0.6581031E-02  0.7070412E-01
 -0.9710590E+01  0.1183240E+02 -0.2568960E-01  0.7572060E-01 -0.1633527E+01  0.4746862E-02  0.7557166E-01
 -0.1082360E+02  0.1082360E+02 -0.2568960E-01  0.8036124E-01 -0.1608280E+01  0.3011550E-02  0.8030479E-01
 -0.1183240E+02  0.9710590E+01 -0.2568960E-01  0.8374808E-01 -0.1591876E+01  0.1765278E-02  0.8372948E-01
 -0.1272720E+02  0.8504060E+01 -0.2568960E-01  0.8697030E-01 -0.1578075E+01  0.6330246E-03  0.8696800E-01
 -0.1349950E+02  0.7215620E+01 -0.2568960E-01  0.9046972E-01 -0.1565278E+01 -0.4992571E-03  0.9046834E-01
 -0.1414170E+02  0.5857690E+01 -0.2568960E-01  0.9365901E-01 -0.1556070E+01 -0.1379219E-02  0.9364885E-01
 -0.1464780E+02  0.4443360E+01 -0.2568960E-01  0.9633673E-01 -0.1550642E+01 -0.1941475E-02  0.9631716E-01
 -0.1501280E+02  0.2986230E+01 -0.2568960E-01  0.9856353E-01 -0.1548362E+01 -0.2211060E-02  0.9853873E-01
 -0.1523320E+02  0.1500340E+01 -0.2568960E-01  0.1005663E+00 -0.1548379E+01 -0.2254250E-02  0.1005411E+00
 -0.1530690E+02 -0.1338170E-05 -0.2568960E-01  0.1026545E+00 -0.1549853E+01 -0.2149740E-02  0.1026320E+00
 -0.1523320E+02 -0.1500340E+01 -0.2568960E-01  0.1050157E+00 -0.1551707E+01 -0.2004602E-02  0.1049965E+00
 -0.1501280E+02 -0.2986230E+01 -0.2568960E-01  0.1073435E+00 -0.1555149E+01 -0.1679560E-02  0.1073303E+00
 -0.1464780E+02 -0.4443360E+01 -0.2568960E-01  0.1094824E+00 -0.1560717E+01 -0.1103483E-02  0.1094769E+00
 -0.1414170E+02 -0.5857700E+01 -0.2568960E-01  0.1114906E+00 -0.1568389E+01 -0.2683493E-03  0.1114903E+00
 -0.1349950E+02 -0.7215620E+01 -0.2568960E-01  0.1134621E+00 -0.1578187E+01  0.8385307E-03  0.1134590E+00
 -0.1272720E+02 -0.8504060E+01 -0.2568960E-01  0.1156238E+00 -0.1590234E+01  0.2247322E-02  0.1156019E+00
 -0.1183240E+02 -0.9710600E+01 -0.2568960E-01  0.1179506E+00 -0.1603755E+01  0.3886803E-02  0.1178866E+00
 -0.1082360E+02 -0.1082360E+02 -0.2568960E-01  0.1203663E+00 -0.1619021E+01  0.5802376E-02  0.1202263E+00
 -0.9710600E+01 -0.1183240E+02 -0.2568960E-01  0.1229627E+00 -0.1637198E+01  0.8158893E-02  0.1226917E+00
 -0.8504050E+01 -0.1272720E+02 -0.2568960E-01  0.1263973E+00 -0.1657783E+01  0.1098107E-01  0.1259194E+00
 -0.7215620E+01 -0.1349950E+02 -0.2568960E-01  0.1301427E+00 -0.1680929E+01  0.1430397E-01  0.1293543E+00
 -0.5857690E+01 -0.1414170E+02 -0.2568960E-01  0.1338341E+00 -0.1706900E+01  0.1815919E-01  0.1325964E+00
 -0.4443360E+01 -0.1464780E+02 -0.2568960E-01  0.1394853E+00 -0.1739076E+01  0.2336195E-01  0.1375150E+00
 -0.2986230E+01 -0.1501280E+02 -0.2568960E-01  0.1482779E+00 -0.1782784E+01  0.3119813E-01  0.1449586E+00
 -0.1500340E+01 -0.1523320E+02 -0.2568960E-01  0.1582754E+00 -0.1855436E+01  0.4444553E-01  0.1519069E+00
  0.1825330E-06 -0.1530690E+02 -0.2568960E-01  0.1473268E+00 -0.1890170E+01  0.4625645E-01  0.1398769E+00
  0.1500340E+01 -0.1523320E+02 -0.2568960E-01  0.1185844E+00 -0.1925062E+01  0.4113713E-01  0.1112205E+00
  0.2986230E+01 -0.1501280E+02 -0.2568960E-01  0.4899194E-01 -0.2059829E+01  0.2301508E-01  0.4324947E-01
  0.4443360E+01 -0.1464780E+02 -0.2568960E-01  0.2701297E-01 -0.2306882E+01  0.1813630E-01  0.2001937E-01
  0.5857700E+01 -0.1414170E+02 -0.2568960E-01  0.1822431E-01 -0.2702297E+01  0.1649394E-01  0.7750842E-02
  0.7215620E+01 -0.1349950E+02 -0.2568960E-01  0.1603521E-01  0.3101419E+01  0.1602227E-01 -0.6440185E-03
  0.8504060E+01 -0.1272720E+02 -0.2568960E-01  0.1744899E-01  0.2733111E+01  0.1601338E-01 -0.6931021E-02
  0.9710600E+01 -0.1183240E+02 -0.2568960E-01  0.2017331E-01  0.2520354E+01  0.1640409E-01 -0.1174174E-01
  0.1082360E+02 -0.1082360E+02 -0.2568960E-01  0.2356334E-01  0.2370104E+01  0.1689193E-01 -0.1642844E-01
  0.1183240E+02 -0.9710590E+01 -0.2568960E-01  0.2658605E-01  0.2300419E+01  0.1772195E-01 -0.1981793E-01
  0.1272720E+02 -0.8504060E+01 -0.2568960E-01  0.2959007E-01  0.2249854E+01  0.1858434E-01 -0.2302595E-01
  0.1349950E+02 -0.7215620E+01 -0.2568960E-01  0.3283112E-01  0.2202388E+01  0.1938449E-01 -0.2649763E-01
  0.1414170E+02 -0.5857700E+01 -0.2568960E-01  0.3594999E-01  0.2171486E+01  0.2031936E-01 -0.2965680E-01
  0.1464780E+02 -0.4443350E+01 -0.2568960E-01  0.3876219E-01  0.2156038E+01  0.2141227E-01 -0.3231133E-01
  0.1501280E+02 -0.2986230E+01 -0.2568960E-01  0.4127717E-01  0.2150891E+01  0.2262415E-01 -0.3452467E-01
  0.1523320E+02 -0.1500330E+01 -0.2568960E-01  0.4363717E-01  0.2149934E+01  0.2388274E-01 -0.3652146E-01
  0.1530690E+02  0.0000000E+00 -0.1027320E+00  0.4595570E-01  0.2147729E+01  0.2506678E-01 -0.3851730E-01
  0.1523320E+02  0.1500340E+01 -0.1027320E+00  0.4853856E-01  0.2140927E+01  0.2619829E-01 -0.4086124E-01
  0.1501280E+02  0.2986230E+01 -0.1027320E+00  0.5110001E-01  0.2135120E+01  0.2733056E-01 -0.4317698E-01
  0.1464780E+02  0.4443360E+01 -0.1027320E+00  0.5353333E-01  0.2132242E+01  0.2850173E-01 -0.4531522E-01
  0.1414170E+02  0.5857700E+01 -0.1027320E+00  0.5588192E-01  0.2131308E+01  0.2970790E-01 -0.4733106E-01
  0.1349950E+02  0.7215620E+01 -0.1027320E+00  0.5822543E-01  0.2131446E+01  0.3096058E-01 -0.4931169E-01
  0.1272720E+02  0.8504060E+01 -0.1027320E+00  0.6077438E-01  0.2131407E+01  0.3231398E-01 -0.5147166E-01
  0.1183240E+02  0.9710600E+01 -0.1027320E+00  0.6347775E-01  0.2130963E+01  0.3372748E-01 -0.5377623E-01
  0.1082360E+02  0.1082360E+02 -0.1027320E+00  0.6627606E-01  0.2131053E+01  0.3521935E-01 -0.5614368E-01
  0.9710590E+01  0.1183240E+02 -0.1027320E+00  0.6929975E-01  0.2132299E+01  0.3689927E-01 -0.5865918E-01
  0.8504060E+01  0.1272720E+02 -0.1027320E+00  0.7314079E-01  0.2131681E+01  0.3890618E-01 -0.6193451E-01
  0.7215620E+01  0.1349950E+02 -0.1027320E+00  0.7731362E-01  0.2132413E+01  0.4117377E-01 -0.6543788E-01
  0.5857700E+01  0.1414170E+02 -0.1027320E+00  0.8149737E-01  0.2136594E+01  0.4368988E-01 -0.6879692E-01
  0.4443360E+01  0.1464780E+02 -0.1027320E+00  0.8770112E-01  0.2140548E+01  0.4730798E-01 -0.7384742E-01
  0.2986230E+01  0.1501280E+02 -0.1027320E+00  0.9727354E-01  0.2147490E+01  0.5303891E-01 -0.8154149E-01
  0.1500340E+01  0.1523320E+02 -0.1027320E+00  0.1081481E+00  0.2176191E+01  0.6154562E-01 -0.8892774E-01
 -0.6690860E-06  0.1530690E+02 -0.1027320E+00  0.9713784E-01  0.2225594E+01  0.5915685E-01 -0.7704692E-01
 -0.1500340E+01  0.1523320E+02 -0.1027320E+00  0.6901761E-01  0.2366692E+01  0.4931245E-01 -0.4828782E-01
 -0.2986230E+01  0.1501280E+02 -0.1027320E+00  0.3153056E-01 -0.2457542E+01  0.2443679E-01  0.1992535E-01
 -0.4443360E+01  0.1464780E+02 -0.1027320E+00  0.4630522E-01 -0.1928231E+01  0.1620092E-01  0.4337861E-01
 -0.5857700E+01  0.1414170E+02 -0.1027320E+00  0.5699040E-01 -0.1780908E+01  0.1188644E-01  0.5573705E-01
 -0.7215620E+01  0.1349950E+02 -0.1027320E+00  0.6483483E-01 -0.1708646E+01  0.8909208E-02  0.6421979E-01
 -0.8504060E+01  0.1272720E+02 -0.1027320E+00  0.7086775E-01 -0.1663591E+01  0.6566707E-02  0.7056285E-01
 -0.9710590E+01  0.1183240E+02 -0.1027320E+00  0.7557828E-01 -0.1633470E+01  0.4733683E-02  0.7542989E-01
 -0.1082360E+02  0.1082360E+02 -0.1027320E+00  0.8019034E-01 -0.1608308E+01  0.3007339E-02  0.8013393E-01
 -0.1183240E+02  0.9710590E+01 -0.1027320E+00  0.8358131E-01 -0.1591856E+01  0.1760097E-02  0.8356277E-01
 -0.1272720E+02  0.8504060E+01 -0.1027320E+00  0.8680098E-01 -0.1578044E+01  0.6291218E-03  0.8679870E-01
 -0.1349950E+02  0.7215620E+01 -0.1027320E+00  0.9028166E-01 -0.1565289E+01 -0.4972225E-03  0.9028029E-01
 -0.1414170E+02  0.5857690E+01 -0.1027320E+00  0.9345234E-01 -0.1556110E+01 -0.1372434E-02  0.9344226E-01
 -0.1464780E+02  0.4443360E+01 -0.1027320E+00  0.9611809E-01 -0.1550687E+01 -0.1932781E-02  0.9609866E-01
 -0.1501280E+02  0.2986230E+01 -0.1027320E+00  0.9833973E-01 -0.1548396E+01 -0.2202706E-02  0.9831506E-01
 -0.1523320E+02  0.1500340E+01 -0.1027320E+00  0.1003409E+00 -0.1548386E+01 -0.2248484E-02  0.1003157E+00
 -0.1530690E+02 -0.1338170E-05 -0.1027320E+00  0.1024259E+00 -0.1549839E+01 -0.2146439E-02  0.1024034E+00
 -0.1523320E+02 -0.1500340E+01 -0.1027320E+00  0.1047796E+00 -0.1551701E+01 -0.2000655E-02  0.1047605E+00
 -0.1501280E+02 -0.2986230E+01 -0.1027320E+00  0.1071012E+00 -0.1555159E+01 -0.1674660E-02  0.1070882E+00
 -0.1464780E+02 -0.4443360E+01 -0.1027320E+00  0.1092386E+00 -0.1560733E+01 -0.1099270E-02  0.1092330E+00
 -0.1414170E+02 -0.5857700E+01 -0.1027320E+00  0.1112480E+00 -0.1568413E+01 -0.2651139E-03  0.1112477E+00
 -0.1349950E+02 -0.7215620E+01 -0.1027320E+00  0.1132222E+00 -0.1578210E+01  0.8393807E-03  0.1132191E+00
 -0.1272720E+02 -0.8504060E+01 -0.1027320E+00  0.1153824E+00 -0.1590254E+01  0.2244904E-02  0.1153606E+00
 -0.1183240E+02 -0.9710600E+01 -0.1027320E+00  0.1177048E+00 -0.1603779E+01  0.3881490E-02  0.1176407E+00
 -0.1082360E+02 -0.1082360E+02 -0.1027320E+00  0.1201156E+00 -0.1619054E+01  0.5794202E-02  0.1199758E+00
 -0.9710600E+01 -0.1183240E+02 -0.1027320E+00  0.1227157E+00 -0.1637224E+01  0.8145708E-02  0.1224451E+00
 -0.8504050E+01 -0.1272720E+02 -0.1027320E+00  0.1261373E+00 -0.1657804E+01  0.1096113E-01  0.1256601E+00
 -0.7215620E+01 -0.1349950E+02 -0.1027320E+00  0.1298711E+00 -0.1680940E+01  0.1427555E-01  0.1290842E+00
 -0.5857690E+01 -0.1414170E+02 -0.1027320E+00  0.1335791E+00 -0.1706947E+01  0.1813079E-01  0.1323429E+00
 -0.4443360E+01 -0.1464780E+02 -0.1027320E+00  0.1392162E+00 -0.1739097E+01  0.2331967E-01  0.1372492E+00
 -0.2986230E+01 -0.1501280E+02 -0.1027320E+00  0.1480168E+00 -0.1782845E+01  0.3115203E-01  0.1447015E+00
 -0.1500340E+01 -0.1523320E+02 -0.1027320E+00  0.1579391E+00 -0.1855393E+01  0.4434463E-01  0.1515860E+00
  0.1825330E-06 -0.1530690E+02 -0.1027320E+00  0.1470201E+00 -0.1890186E+01  0.4616239E-01  0.1395849E+00
  0.1500340E+01 -0.1523320E+02 -0.1027320E+00  0.1182685E+00 -0.1925128E+01  0.4103493E-01  0.1109215E+00
  0.2986230E+01 -0.1501280E+02 -0.1027320E+00  0.4891616E-01 -0.2059886E+01  0.2298190E-01  0.4318128E-01
  0.4443360E+01 -0.1464780E+02 -0.1027320E+00  0.2694053E-01 -0.2307400E+01  0.1809800E-01  0.1995631E-01
  0.5857700E+01 -0.1414170E+02 -0.1027320E+00  0.1818938E-01 -0.2702576E+01  0.1646448E-01  0.7731392E-02
  0.7215620E+01 -0.1349950E+02 -0.1027320E+00  0.1600047E-01  0.3100376E+01  0.1598688E-01 -0.6592944E-03
  0.8504060E+01 -0.1272720E+02 -0.1027320E+00  0.1741753E-01  0.2732470E+01  0.1598006E-01 -0.6928771E-02
  0.9710600E+01 -0.1183240E+02 -0.1027320E+00  0.2014293E-01  0.2519421E+01  0.1636844E-01 -0.1173933E-01
  0.1082360E+02 -0.1082360E+02 -0.1027320E+00  0.2351825E-01  0.2370069E+01  0.1685903E-01 -0.1639759E-01
  0.1183240E+02 -0.9710590E+01 -0.1027320E+00  0.2654036E-01  0.2300033E+01  0.1768387E-01 -0.1979069E-01
  0.1272720E+02 -0.8504060E+01 -0.1027320E+00  0.2954085E-01  0.2249418E+01  0.1854341E-01 -0.2299573E-01
  0.1349950E+02 -0.7215620E+01 -0.1027320E+00  0.3276894E-01  0.2202292E+01  0.1934523E-01 -0.2644930E-01
  0.1414170E+02 -0.5857700E+01 -0.1027320E+00  0.3587264E-01  0.2171616E+01  0.2027948E-01 -0.2959035E-01
  0.1464780E+02 -0.4443350E+01 -0.1027320E+00  0.3867318E-01  0.2156239E+01  0.2136957E-01 -0.3223285E-01
  0.1501280E+02 -0.2986230E+01 -0.1027320E+00  0.4118133E-01  0.2151052E+01  0.2257718E-01 -0.3444086E-01
  0.1523320E+02 -0.1500330E+01 -0.1027320E+00  0.4353727E-01  0.2150009E+01  0.2383077E-01 -0.3643608E-01
  0.1530690E+02  0.0000000E+00 -0.2310450E+00  0.4578117E-01  0.2147812E+01  0.2497477E-01 -0.3836895E-01
  0.1523320E+02  0.1500340E+01 -0.2310450E+00  0.4835148E-01  0.2141049E+01  0.2610229E-01 -0.4070057E-01
  0.1501280E+02  0.2986230E+01 -0.2310450E+00  0.5090283E-01  0.2135278E+01  0.2723191E-01 -0.4300607E-01
  0.1464780E+02  0.4443360E+01 -0.2310450E+00  0.5333220E-01  0.2132370E+01  0.2840039E-01 -0.4514135E-01
  0.1414170E+02  0.5857700E+01 -0.2310450E+00  0.5568191E-01  0.2131372E+01  0.2960462E-01 -0.4715974E-01
  0.1349950E+02  0.7215620E+01 -0.2310450E+00  0.5802802E-01  0.2131433E+01  0.3085500E-01 -0.4914489E-01
  0.1272720E+02  0.8504060E+01 -0.2310450E+00  0.6057240E-01  0.2131359E+01  0.3220409E-01 -0.5130216E-01
  0.1183240E+02  0.9710600E+01 -0.2310450E+00  0.6326748E-01  0.2130925E+01  0.3361369E-01 -0.5359938E-01
  0.1082360E+02  0.1082360E+02 -0.2310450E+00  0.6605727E-01  0.2131024E+01  0.3510145E-01 -0.5595938E-01
  0.9710590E+01  0.1183240E+02 -0.2310450E+00  0.6908420E-01  0.2132181E+01  0.3677757E-01 -0.5848109E-01
  0.8504060E+01  0.1272720E+02 -0.2310450E+00  0.7290185E-01  0.2131614E+01  0.3877497E-01 -0.6173477E-01
  0.7215620E+01  0.1349950E+02 -0.2310450E+00  0.7705450E-01  0.2132354E+01  0.4103193E-01 -0.6522098E-01
  0.5857700E+01  0.1414170E+02 -0.2310450E+00  0.8126206E-01  0.2136449E+01  0.4355377E-01 -0.6860460E-01
  0.4443360E+01  0.1464780E+02 -0.2310450E+00  0.8744416E-01  0.2140390E+01  0.4715778E-01 -0.7363848E-01
  0.2986230E+01  0.1501280E+02 -0.2310450E+00  0.9701662E-01  0.2147292E+01  0.5288272E-01 -0.8133660E-01
  0.1500340E+01  0.1523320E+02 -0.2310450E+00  0.1078159E+00  0.2176057E+01  0.6134475E-01 -0.8866281E-01
 -0.6690860E-06  0.1530690E+02 -0.2310450E+00  0.9680262E-01  0.2225569E+01  0.5895073E-01 -0.7678255E-01
 -0.1500340E+01  0.1523320E+02 -0.2310450E+00  0.6877840E-01  0.2366708E+01  0.4914229E-01 -0.4811968E-01
 -0.2986230E+01  0.1501280E+02 -0.2310450E+00  0.3141548E-01 -0.2458384E+01  0.2436431E-01  0.1983210E-01
 -0.4443360E+01  0.1464780E+02 -0.2310450E+00  0.4615586E-01 -0.1928074E+01  0.1614186E-01  0.4324123E-01
 -0.5857700E+01  0.1414170E+02 -0.2310450E+00  0.5678971E-01 -0.1780993E+01  0.1184929E-01  0.5553976E-01
 -0.7215620E+01  0.1349950E+02 -0.2310450E+00  0.6462384E-01 -0.1708543E+01  0.8873618E-02  0.6401172E-01
 -0.8504060E+01  0.1272720E+02 -0.2310450E+00  0.7062909E-01 -0.1663568E+01  0.6543004E-02  0.7032537E-01
 -0.9710590E+01  0.1183240E+02 -0.2310450E+00  0.7533938E-01 -0.1633374E+01  0.4711518E-02  0.7519191E-01
 -0.1082360E+02  0.1082360E+02 -0.2310450E+00  0.7990423E-01 -0.1608375E+01  0.3001997E-02  0.7984781E-01
 -0.1183240E+02  0.9710590E+01 -0.2310450E+00  0.8330172E-01 -0.1591833E+01  0.1752306E-02  0.8328329E-01
 -0.1272720E+02  0.8504060E+01 -0.2310450E+00  0.8651683E-01 -0.1578002E+01  0.6233950E-03  0.8651459E-01
 -0.1349950E+02  0.7215620E+01 -0.2310450E+00  0.8996662E-01 -0.1565315E+01 -0.4931471E-03  0.8996528E-01
 -0.1414170E+02  0.5857690E+01 -0.2310450E+00  0.9310708E-01 -0.1556194E+01 -0.1359546E-02  0.9309716E-01
 -0.1464780E+02  0.4443360E+01 -0.2310450E+00  0.9575356E-01 -0.1550761E+01 -0.1918349E-02  0.9573434E-01
 -0.1501280E+02  0.2986230E+01 -0.2310450E+00  0.9796672E-01 -0.1548444E+01 -0.2189596E-02  0.9794224E-01
 -0.1523320E+02  0.1500340E+01 -0.2310450E+00  0.9996533E-01 -0.1548399E+01 -0.2238747E-02  0.9994026E-01
 -0.1530690E+02 -0.1338170E-05 -0.2310450E+00  0.1020454E+00 -0.1549830E+01 -0.2139386E-02  0.1020230E+00
 -0.1523320E+02 -0.1500340E+01 -0.2310450E+00  0.1043871E+00 -0.1551697E+01 -0.1993584E-02  0.1043681E+00
 -0.1501280E+02 -0.2986230E+01 -0.2310450E+00  0.1066984E+00 -0.1555168E+01 -0.1667421E-02  0.1066853E+00
 -0.1464780E+02 -0.4443360E+01 -0.2310450E+00  0.1088323E+00 -0.1560758E+01 -0.1092432E-02  0.1088268E+00
 -0.1414170E+02 -0.5857700E+01 -0.2310450E+00  0.1108444E+00 -0.1568445E+01 -0.2605904E-03  0.1108441E+00
 -0.1349950E+02 -0.7215620E+01 -0.2310450E+00  0.1128229E+00 -0.1578250E+01  0.8408934E-03  0.1128197E+00
 -0.1272720E+02 -0.8504060E+01 -0.2310450E+00  0.1149807E+00 -0.1590279E+01  0.2240027E-02  0.1149589E+00
 -0.1183240E+02 -0.9710600E+01 -0.2310450E+00  0.1172957E+00 -0.1603812E+01  0.3871881E-02  0.1172317E+00
 -0.1082360E+02 -0.1082360E+02 -0.2310450E+00  0.1196992E+00 -0.1619107E+01  0.5780499E-02  0.1195596E+00
 -0.9710600E+01 -0.1183240E+02 -0.2310450E+00  0.1223050E+00 -0.1637258E+01  0.8122665E-02  0.1220350E+00
 -0.8504050E+01 -0.1272720E+02 -0.2310450E+00  0.1257048E+00 -0.1657831E+01  0.1092683E-01  0.1252290E+00
 -0.7215620E+01 -0.1349950E+02 -0.2310450E+00  0.1294203E+00 -0.1680952E+01  0.1422756E-01  0.1286358E+00
 -0.5857690E+01 -0.1414170E+02 -0.2310450E+00  0.1331526E+00 -0.1707013E+01  0.1808155E-01  0.1319192E+00
 -0.4443360E+01 -0.1464780E+02 -0.2310450E+00  0.1387710E+00 -0.1739135E+01  0.2325037E-01  0.1368094E+00
 -0.2986230E+01 -0.1501280E+02 -0.2310450E+00  0.1475739E+00 -0.1782913E+01  0.3106873E-01  0.1442664E+00
 -0.1500340E+01 -0.1523320E+02 -0.2310450E+00  0.1574259E+00 -0.1855397E+01  0.4420106E-01  0.1510932E+00
  0.1825330E-06 -0.1530690E+02 -0.2310450E+00  0.1465027E+00 -0.1890201E+01  0.4600203E-01  0.1390929E+00
  0.1500340E+01 -0.1523320E+02 -0.2310450E+00  0.1178488E+00 -0.1925198E+01  0.4089695E-01  0.1105250E+00
  0.2986230E+01 -0.1501280E+02 -0.2310450E+00  0.4876542E-01 -0.2060036E+01  0.2291754E-01  0.4304477E-01
  0.4443360E+01 -0.1464780E+02 -0.2310450E+00  0.2683062E-01 -0.2308028E+01  0.1803665E-01  0.1986357E-01
  0.5857700E+01 -0.1414170E+02 -0.2310450E+00  0.1812928E-01 -0.2703071E+01  0.1641390E-01  0.7697712E-02
  0.7215620E+01 -0.1349950E+02 -0.2310450E+00  0.1594252E-01  0.3098805E+01  0.1592793E-01 -0.6819351E-03
  0.8504060E+01 -0.1272720E+02 -0.2310450E+00  0.1736443E-01  0.2731524E+01  0.1592480E-01 -0.6922725E-02
  0.9710600E+01 -0.1183240E+02 -0.2310450E+00  0.2009070E-01  0.2517940E+01  0.1630864E-01 -0.1173306E-01
  0.1082360E+02 -0.1082360E+02 -0.2310450E+00  0.2344101E-01  0.2370118E+01  0.1680447E-01 -0.1634290E-01
  0.1183240E+02 -0.9710590E+01 -0.2310450E+00  0.2646335E-01  0.2299478E+01  0.1762160E-01 -0.1974306E-01
  0.1272720E+02 -0.8504060E+01 -0.2310450E+00  0.2945821E-01  0.2248757E+01  0.1847637E-01 -0.2294363E-01
  0.1349950E+02 -0.7215620E+01 -0.2310450E+00  0.3266355E-01  0.2202170E+01  0.1927981E-01 -0.2636658E-01
  0.1414170E+02 -0.5857700E+01 -0.2310450E+00  0.3574200E-01  0.2171878E+01  0.2021336E-01 -0.2947730E-01
  0.1464780E+02 -0.4443350E+01 -0.2310450E+00  0.3852375E-01  0.2156600E+01  0.2129861E-01 -0.3210060E-01
  0.1501280E+02 -0.2986230E+01 -0.2310450E+00  0.4102129E-01  0.2151360E+01  0.2249999E-01 -0.3430010E-01
  0.1523320E+02 -0.1500330E+01 -0.2310450E+00  0.4337045E-01  0.2150171E+01  0.2374536E-01 -0.3629261E-01
  0.1530690E+02  0.0000000E+00 -0.4105000E+00  0.4554060E-01  0.2147881E+01  0.2484616E-01 -0.3816562E-01
  0.1523320E+02  0.1500340E+01 -0.4105000E+00  0.4809474E-01  0.2141179E+01  0.2596894E-01 -0.4048109E-01
  0.1501280E+02  0.2986230E+01 -0.4105000E+00  0.5063199E-01  0.2135458E+01  0.2709468E-01 -0.4277239E-01
  0.1464780E+02  0.4443360E+01 -0.4105000E+00  0.5305683E-01  0.2132519E+01  0.2826043E-01 -0.4490407E-01
  0.1414170E+02  0.5857700E+01 -0.4105000E+00  0.5540807E-01  0.2131422E+01  0.2946137E-01 -0.4692635E-01
  0.1349950E+02  0.7215620E+01 -0.4105000E+00  0.5775750E-01  0.2131381E+01  0.3070861E-01 -0.4891738E-01
  0.1272720E+02  0.8504060E+01 -0.4105000E+00  0.6029572E-01  0.2131246E+01  0.3205122E-01 -0.5107145E-01
  0.1183240E+02  0.9710600E+01 -0.4105000E+00  0.6297890E-01  0.2130826E+01  0.3345510E-01 -0.5335821E-01
  0.1082360E+02  0.1082360E+02 -0.4105000E+00  0.6575600E-01  0.2130948E+01  0.3493711E-01 -0.5570682E-01
  0.9710590E+01  0.1183240E+02 -0.4105000E+00  0.6878631E-01  0.2131994E+01  0.3660809E-01 -0.5823576E-01
  0.8504060E+01  0.1272720E+02 -0.4105000E+00  0.7256999E-01  0.2131501E+01  0.3859152E-01 -0.6145810E-01
  0.7215620E+01  0.1349950E+02 -0.4105000E+00  0.7668839E-01  0.2132300E+01  0.4083348E-01 -0.6491330E-01
  0.5857700E+01  0.1414170E+02 -0.4105000E+00  0.8092346E-01  0.2136268E+01  0.4335992E-01 -0.6832659E-01
  0.4443360E+01  0.1464780E+02 -0.4105000E+00  0.8705899E-01  0.2140244E+01  0.4693929E-01 -0.7332101E-01
  0.2986230E+01  0.1501280E+02 -0.4105000E+00  0.9659982E-01  0.2147123E+01  0.5264183E-01 -0.8099607E-01
  0.1500340E+01  0.1523320E+02 -0.4105000E+00  0.1072998E+00  0.2175988E+01  0.6104493E-01 -0.8824261E-01
 -0.6690860E-06  0.1530690E+02 -0.4105000E+00  0.9628695E-01  0.2225639E+01  0.5864207E-01 -0.7636940E-01
 -0.1500340E+01  0.1523320E+02 -0.4105000E+00  0.6844544E-01  0.2366668E+01  0.4890249E-01 -0.4788867E-01
 -0.2986230E+01  0.1501280E+02 -0.4105000E+00  0.3125614E-01 -0.2459074E+01  0.2425436E-01  0.1971478E-01
 -0.4443360E+01  0.1464780E+02 -0.4105000E+00  0.4592847E-01 -0.1928160E+01  0.1606606E-01  0.4302681E-01
 -0.5857700E+01  0.1414170E+02 -0.4105000E+00  0.5649788E-01 -0.1781214E+01  0.1180060E-01  0.5525175E-01
 -0.7215620E+01  0.1349950E+02 -0.4105000E+00  0.6431471E-01 -0.1708485E+01  0.8827467E-02  0.6370603E-01
 -0.8504060E+01  0.1272720E+02 -0.4105000E+00  0.7029426E-01 -0.1663550E+01  0.6510711E-02  0.6999210E-01
 -0.9710590E+01  0.1183240E+02 -0.4105000E+00  0.7500635E-01 -0.1633245E+01  0.4680982E-02  0.7486014E-01
 -0.1082360E+02  0.1082360E+02 -0.4105000E+00  0.7950629E-01 -0.1608452E+01  0.2993170E-02  0.7944993E-01