 VARIABLES="X" "Y" "Z" "abs(eta) (m)" "angle(phi) (rad)" "PRE1" "PRE2"
ZONE N=   3200 ,E =    3136 ,F=FEPOINT,ET=QUADRILATERAL
  0.1530690E+02  0.0000000E+00  0.0000000E+00  0.2073339E+00  0.1879558E+01  0.6300453E-01 -0.1975292E+00
  0.1523320E+02  0.1500340E+01  0.0000000E+00  0.2082351E+00  0.1880007E+01  0.6336745E-01 -0.1983593E+00
  0.1501280E+02  0.2986230E+01  0.0000000E+00  0.2091832E+00  0.1879313E+01  0.6351746E-01 -0.1993066E+00
  0.1464780E+02  0.4443360E+01  0.0000000E+00  0.2094485E+00  0.1878284E+01  0.6339272E-01 -0.1996247E+00
  0.1414170E+02  0.5857700E+01  0.0000000E+00  0.2087648E+00  0.1877192E+01  0.6296851E-01 -0.1990420E+00
  0.1349950E+02  0.7215620E+01  0.0000000E+00  0.2071785E+00  0.1876001E+01  0.6225470E-01 -0.1976038E+00
  0.1272720E+02  0.8504060E+01  0.0000000E+00  0.2053727E+00  0.1874089E+01  0.6133739E-01 -0.1959992E+00
  0.1183240E+02  0.9710600E+01  0.0000000E+00  0.2042309E+00  0.1870933E+01  0.6038102E-01 -0.1951010E+00
  0.1082360E+02  0.1082360E+02  0.0000000E+00  0.2029264E+00  0.1867353E+01  0.5930099E-01 -0.1940683E+00
  0.9710590E+01  0.1183240E+02  0.0000000E+00  0.1998143E+00  0.1864374E+01  0.5782194E-01 -0.1912652E+00
  0.8504060E+01  0.1272720E+02  0.0000000E+00  0.1978865E+00  0.1859613E+01  0.5636171E-01 -0.1896904E+00
  0.7215620E+01  0.1349950E+02  0.0000000E+00  0.1940747E+00  0.1856166E+01  0.5463436E-01 -0.1862258E+00
  0.5857700E+01  0.1414170E+02  0.0000000E+00  0.1867884E+00  0.1855824E+01  0.5252199E-01 -0.1792522E+00
  0.4443360E+01  0.1464780E+02  0.0000000E+00  0.1765232E+00  0.1857459E+01  0.4991234E-01 -0.1693198E+00
  0.2986230E+01  0.1501280E+02  0.0000000E+00  0.1538268E+00  0.1871421E+01  0.4555075E-01 -0.1469279E+00
  0.1500340E+01  0.1523320E+02  0.0000000E+00  0.6105329E-01  0.2090396E+01  0.3031494E-01 -0.5299536E-01
 -0.6690860E-06  0.1530690E+02  0.0000000E+00  0.2429919E-01 -0.2554760E+01  0.2023391E-01  0.1345510E-01
 -0.1500340E+01  0.1523320E+02  0.0000000E+00  0.8388644E-01 -0.1707998E+01  0.1147326E-01  0.8309814E-01
 -0.2986230E+01  0.1501280E+02  0.0000000E+00  0.1914137E+00 -0.1581757E+01  0.2098027E-02  0.1914022E+00
 -0.4443360E+01  0.1464780E+02  0.0000000E+00  0.2195609E+00 -0.1560085E+01 -0.2351690E-02  0.2195483E+00
 -0.5857700E+01  0.1414170E+02  0.0000000E+00  0.2327389E+00 -0.1545207E+01 -0.5954906E-02  0.2326627E+00
 -0.7215620E+01  0.1349950E+02  0.0000000E+00  0.2419384E+00 -0.1532084E+01 -0.9363743E-02  0.2417572E+00
 -0.8504060E+01  0.1272720E+02  0.0000000E+00  0.2472916E+00 -0.1520932E+01 -0.1232594E-01  0.2469842E+00
 -0.9710590E+01  0.1183240E+02  0.0000000E+00  0.2504499E+00 -0.1511150E+01 -0.1492964E-01  0.2500045E+00
 -0.1082360E+02  0.1082360E+02  0.0000000E+00  0.2546853E+00 -0.1502203E+01 -0.1745598E-01  0.2540863E+00
 -0.1183240E+02  0.9710590E+01  0.0000000E+00  0.2568740E+00 -0.1494144E+01 -0.1967082E-01  0.2561197E+00
 -0.1272720E+02  0.8504060E+01  0.0000000E+00  0.2588768E+00 -0.1487246E+01 -0.2160419E-01  0.2579738E+00
 -0.1349950E+02  0.7215620E+01  0.0000000E+00  0.2615983E+00 -0.1481619E+01 -0.2329765E-01  0.2605588E+00
 -0.1414170E+02  0.5857690E+01  0.0000000E+00  0.2640370E+00 -0.1477214E+01 -0.2467312E-01  0.2628817E+00
 -0.1464780E+02  0.4443360E+01  0.0000000E+00  0.2655004E+00 -0.1473969E+01 -0.2566761E-01  0.2642567E+00
 -0.1501280E+02  0.2986230E+01  0.0000000E+00  0.2659695E+00 -0.1471849E+01 -0.2627400E-01  0.2646685E+00
 -0.1523320E+02  0.1500340E+01  0.0000000E+00  0.2657656E+00 -0.1470846E+01 -0.2651917E-01  0.2644392E+00
 -0.1530690E+02 -0.1338170E-05  0.0000000E+00  0.2656636E+00 -0.1471154E+01 -0.2642758E-01  0.2643459E+00
 -0.1523320E+02 -0.1500340E+01  0.0000000E+00  0.2664523E+00 -0.1473053E+01 -0.2600242E-01  0.2651805E+00
 -0.1501280E+02 -0.2986230E+01  0.0000000E+00  0.2673212E+00 -0.1476295E+01 -0.2522463E-01  0.2661285E+00
 -0.1464780E+02 -0.4443360E+01  0.0000000E+00  0.2675248E+00 -0.1480670E+01 -0.2407839E-01  0.2664390E+00
 -0.1414170E+02 -0.5857700E+01  0.0000000E+00  0.2667980E+00 -0.1486097E+01 -0.2257051E-01  0.2658416E+00
 -0.1349950E+02 -0.7215620E+01  0.0000000E+00  0.2651907E+00 -0.1492590E+01 -0.2071855E-01  0.2643801E+00
 -0.1272720E+02 -0.8504060E+01  0.0000000E+00  0.2633972E+00 -0.1500353E+01 -0.1853928E-01  0.2627439E+00
 -0.1183240E+02 -0.9710600E+01  0.0000000E+00  0.2622955E+00 -0.1509713E+01 -0.1601194E-01  0.2618064E+00
 -0.1082360E+02 -0.1082360E+02  0.0000000E+00  0.2610571E+00 -0.1520450E+01 -0.1313764E-01  0.2607263E+00
 -0.9710600E+01 -0.1183240E+02  0.0000000E+00  0.2580556E+00 -0.1532043E+01 -0.9997965E-02  0.2578619E+00
 -0.8504050E+01 -0.1272720E+02  0.0000000E+00  0.2562995E+00 -0.1545020E+01 -0.6605812E-02  0.2562144E+00
 -0.7215620E+01 -0.1349950E+02  0.0000000E+00  0.2526745E+00 -0.1559379E+01 -0.2884718E-02  0.2526580E+00
 -0.5857690E+01 -0.1414170E+02  0.0000000E+00  0.2455730E+00 -0.1575736E+01  0.1213083E-02  0.2455700E+00
 -0.4443360E+01 -0.1464780E+02  0.0000000E+00  0.2355459E+00 -0.1594142E+01  0.5498402E-02  0.2354817E+00
 -0.2986230E+01 -0.1501280E+02  0.0000000E+00  0.2130645E+00 -0.1617671E+01  0.9983625E-02  0.2128305E+00
 -0.1500340E+01 -0.1523320E+02  0.0000000E+00  0.1191295E+00 -0.1684227E+01  0.1348404E-01  0.1183639E+00
  0.1825330E-06 -0.1530690E+02  0.0000000E+00  0.5482936E-01 -0.1905335E+01  0.1800229E-01  0.5178973E-01
  0.1500340E+01 -0.1523320E+02  0.0000000E+00  0.2978940E-01  0.2503563E+01  0.2392896E-01 -0.1774298E-01
  0.2986230E+01 -0.1501280E+02  0.0000000E+00  0.1299616E+00  0.1832741E+01  0.3365474E-01 -0.1255284E+00
  0.4443360E+01 -0.1464780E+02  0.0000000E+00  0.1581238E+00  0.1815247E+01  0.3826966E-01 -0.1534229E+00
  0.5857700E+01 -0.1414170E+02  0.0000000E+00  0.1715436E+00  0.1816653E+01  0.4175152E-01 -0.1663851E+00
  0.7215620E+01 -0.1349950E+02  0.0000000E+00  0.1809923E+00  0.1820642E+01  0.4475110E-01 -0.1753726E+00
  0.8504060E+01 -0.1272720E+02  0.0000000E+00  0.1866451E+00  0.1827903E+01  0.4746072E-01 -0.1805100E+00
  0.9710600E+01 -0.1183240E+02  0.0000000E+00  0.1901363E+00  0.1836626E+01  0.4995067E-01 -0.1834577E+00
  0.1082360E+02 -0.1082360E+02  0.0000000E+00  0.1946408E+00  0.1842891E+01  0.5230973E-01 -0.1874799E+00
  0.1183240E+02 -0.9710590E+01  0.0000000E+00  0.1971007E+00  0.1850069E+01  0.5433203E-01 -0.1894643E+00
  0.1272720E+02 -0.8504060E+01  0.0000000E+00  0.1993572E+00  0.1856497E+01  0.5618485E-01 -0.1912761E+00
  0.1349950E+02 -0.7215620E+01  0.0000000E+00  0.2022896E+00  0.1861130E+01  0.5790981E-01 -0.1938235E+00
  0.1414170E+02 -0.5857700E+01  0.0000000E+00  0.2049261E+00  0.1865070E+01  0.5943777E-01 -0.1961169E+00
  0.1464780E+02 -0.4443350E+01  0.0000000E+00  0.2065957E+00  0.1869118E+01  0.6072184E-01 -0.1974706E+00
  0.1501280E+02 -0.2986230E+01  0.0000000E+00  0.2072766E+00  0.1873267E+01  0.6174349E-01 -0.1978669E+00
  0.1523320E+02 -0.1500330E+01  0.0000000E+00  0.2072719E+00  0.1877037E+01  0.6248761E-01 -0.1976282E+00
  0.1530690E+02  0.0000000E+00 -0.2568960E-01  0.2071738E+00  0.1879579E+01  0.6295987E-01 -0.1973754E+00
  0.1523320E+02  0.1500340E+01 -0.2568960E-01  0.2080729E+00  0.1880032E+01  0.6332292E-01 -0.1982033E+00
  0.1501280E+02  0.2986230E+01 -0.2568960E-01  0.2090181E+00  0.1879335E+01  0.6347191E-01 -0.1991479E+00
  0.1464780E+02  0.4443360E+01 -0.2568960E-01  0.2092834E+00  0.1878296E+01  0.6334522E-01 -0.1994666E+00
  0.1414170E+02  0.5857700E+01 -0.2568960E-01  0.2086074E+00  0.1877202E+01  0.6292306E-01 -0.1988912E+00
  0.1349950E+02  0.7215620E+01 -0.2568960E-01  0.2070331E+00  0.1876001E+01  0.6221103E-01 -0.1974651E+00
  0.1272720E+02  0.8504060E+01 -0.2568960E-01  0.2052365E+00  0.1874084E+01  0.6129581E-01 -0.1958695E+00
  0.1183240E+02  0.9710600E+01 -0.2568960E-01  0.2040945E+00  0.1870928E+01  0.6033964E-01 -0.1949710E+00
  0.1082360E+02  0.1082360E+02 -0.2568960E-01  0.2027862E+00  0.1867354E+01  0.5926027E-01 -0.1939342E+00
  0.9710590E+01  0.1183240E+02 -0.2568960E-01  0.1996906E+00  0.1864358E+01  0.5778316E-01 -0.1911477E+00
  0.8504060E+01  0.1272720E+02 -0.2568960E-01  0.1977563E+00  0.1859610E+01  0.5632410E-01 -0.1895657E+00
  0.7215620E+01  0.1349950E+02 -0.2568960E-01  0.1939548E+00  0.1856150E+01  0.5459766E-01 -0.1861117E+00
  0.5857700E+01  0.1414170E+02 -0.2568960E-01  0.1866707E+00  0.1855803E+01  0.5248514E-01 -0.1791403E+00
  0.4443360E+01  0.1464780E+02 -0.2568960E-01  0.1764252E+00  0.1857430E+01  0.4987973E-01 -0.1692272E+00
  0.2986230E+01  0.1501280E+02 -0.2568960E-01  0.1537414E+00  0.1871388E+01  0.4552059E-01 -0.1468479E+00
  0.1500340E+01  0.1523320E+02 -0.2568960E-01  0.6104600E-01  0.2090193E+01  0.3030056E-01 -0.5299519E-01
 -0.6690860E-06  0.1530690E+02 -0.2568960E-01  0.2428377E-01 -0.2554792E+01  0.2022150E-01  0.1344591E-01
 -0.1500340E+01  0.1523320E+02 -0.2568960E-01  0.8386510E-01 -0.1707923E+01  0.1146411E-01  0.8307785E-01
 -0.2986230E+01  0.1501280E+02 -0.2568960E-01  0.1912962E+00 -0.1581739E+01  0.2093235E-02  0.1912847E+00
 -0.4443360E+01  0.1464780E+02 -0.2568960E-01  0.2194302E+00 -0.1560087E+01 -0.2349937E-02  0.2194176E+00
 -0.5857700E+01  0.1414170E+02 -0.2568960E-01  0.2325863E+00 -0.1545204E+01 -0.5951766E-02  0.2325102E+00
 -0.7215620E+01  0.1349950E+02 -0.2568960E-01  0.2417849E+00 -0.1532084E+01 -0.9357836E-02  0.2416037E+00
 -0.8504060E+01  0.1272720E+02 -0.2568960E-01  0.2471250E+00 -0.1520935E+01 -0.1231699E-01  0.2468178E+00
 -0.9710590E+01  0.1183240E+02 -0.2568960E-01  0.2502894E+00 -0.1511148E+01 -0.1492056E-01  0.2498442E+00
 -0.1082360E+02  0.1082360E+02 -0.2568960E-01  0.2545060E+00 -0.1502204E+01 -0.1744355E-01  0.2539075E+00
 -0.1183240E+02  0.9710590E+01 -0.2568960E-01  0.2566987E+00 -0.1494148E+01 -0.1965621E-01  0.2559451E+00
 -0.1272720E+02  0.8504060E+01 -0.2568960E-01  0.2587023E+00 -0.1487243E+01 -0.2159019E-01  0.2577998E+00
 -0.1349950E+02  0.7215620E+01 -0.2568960E-01  0.2614130E+00 -0.1481626E+01 -0.2327941E-01  0.2603744E+00
 -0.1414170E+02  0.5857690E+01 -0.2568960E-01  0.2638393E+00 -0.1477220E+01 -0.2465315E-01  0.2626850E+00
 -0.1464780E+02  0.4443360E+01 -0.2568960E-01  0.2652949E+00 -0.1473972E+01 -0.2564692E-01  0.2640523E+00
 -0.1501280E+02  0.2986230E+01 -0.2568960E-01  0.2657613E+00 -0.1471852E+01 -0.2625275E-01  0.2644614E+00
 -0.1523320E+02  0.1500340E+01 -0.2568960E-01  0.2655602E+00 -0.1470849E+01 -0.2649775E-01  0.2642349E+00
 -0.1530690E+02 -0.1338170E-05 -0.2568960E-01  0.2654606E+00 -0.1471153E+01 -0.2640757E-01  0.2641438E+00
 -0.1523320E+02 -0.1500340E+01 -0.2568960E-01  0.2662464E+00 -0.1473053E+01 -0.2598245E-01  0.2649756E+00
 -0.1501280E+02 -0.2986230E+01 -0.2568960E-01  0.2671119E+00 -0.1476292E+01 -0.2520564E-01  0.2659200E+00
 -0.1464780E+02 -0.4443360E+01 -0.2568960E-01  0.2673183E+00 -0.1480670E+01 -0.2405991E-01  0.2662333E+00
 -0.1414170E+02 -0.5857700E+01 -0.2568960E-01  0.2665985E+00 -0.1486101E+01 -0.2255267E-01  0.2656429E+00
 -0.1349950E+02 -0.7215620E+01 -0.2568960E-01  0.2650025E+00 -0.1492595E+01 -0.2070246E-01  0.2641926E+00
 -0.1272720E+02 -0.8504060E+01 -0.2568960E-01  0.2632180E+00 -0.1500360E+01 -0.1852475E-01  0.2625653E+00
 -0.1183240E+02 -0.9710600E+01 -0.2568960E-01  0.2621163E+00 -0.1509721E+01 -0.1599881E-01  0.2616276E+00
 -0.1082360E+02 -0.1082360E+02 -0.2568960E-01  0.2608734E+00 -0.1520448E+01 -0.1312892E-01  0.2605428E+00
 -0.9710600E+01 -0.1183240E+02 -0.2568960E-01  0.2578899E+00 -0.1532046E+01 -0.9990752E-02  0.2576963E+00
 -0.8504050E+01 -0.1272720E+02 -0.2568960E-01  0.2561260E+00 -0.1545024E+01 -0.6600230E-02  0.2560409E+00
 -0.7215620E+01 -0.1349950E+02 -0.2568960E-01  0.2525115E+00 -0.1559381E+01 -0.2882431E-02  0.2524951E+00
 -0.5857690E+01 -0.1414170E+02 -0.2568960E-01  0.2454139E+00 -0.1575731E+01  0.1210991E-02  0.2454109E+00
 -0.4443360E+01 -0.1464780E+02 -0.2568960E-01  0.2354043E+00 -0.1594136E+01  0.5493804E-02  0.2353402E+00
 -0.2986230E+01 -0.1501280E+02 -0.2568960E-01  0.2129371E+00 -0.1617662E+01  0.9975743E-02  0.2127033E+00
 -0.1500340E+01 -0.1523320E+02 -0.2568960E-01  0.1190806E+00 -0.1684197E+01  0.1347493E-01  0.1183157E+00
  0.1825330E-06 -0.1530690E+02 -0.2568960E-01  0.5478926E-01 -0.1905357E+01  0.1799031E-01  0.5175144E-01
  0.1500340E+01 -0.1523320E+02 -0.2568960E-01  0.2979435E-01  0.2502585E+01  0.2391557E-01 -0.1776932E-01
  0.2986230E+01 -0.1501280E+02 -0.2568960E-01  0.1298884E+00  0.1832714E+01  0.3363247E-01 -0.1254585E+00
  0.4443360E+01 -0.1464780E+02 -0.2568960E-01  0.1580382E+00  0.1815218E+01  0.3824454E-01 -0.1533408E+00
  0.5857700E+01 -0.1414170E+02 -0.2568960E-01  0.1714364E+00  0.1816638E+01  0.4172300E-01 -0.1662818E+00
  0.7215620E+01 -0.1349950E+02 -0.2568960E-01  0.1808825E+00  0.1820625E+01  0.4472101E-01 -0.1752669E+00
  0.8504060E+01 -0.1272720E+02 -0.2568960E-01  0.1865235E+00  0.1827891E+01  0.4742760E-01 -0.1803930E+00
  0.9710600E+01 -0.1183240E+02 -0.2568960E-01  0.1900211E+00  0.1836605E+01  0.4991662E-01 -0.1833476E+00
  0.1082360E+02 -0.1082360E+02 -0.2568960E-01  0.1945054E+00  0.1842891E+01  0.5227329E-01 -0.1873495E+00
  0.1183240E+02 -0.9710590E+01 -0.2568960E-01  0.1969688E+00  0.1850054E+01  0.5429285E-01 -0.1893383E+00
  0.1272720E+02 -0.8504060E+01 -0.2568960E-01  0.1992260E+00  0.1856483E+01  0.5614522E-01 -0.1911510E+00
  0.1349950E+02 -0.7215620E+01 -0.2568960E-01  0.2021476E+00  0.1861128E+01  0.5786883E-01 -0.1936876E+00
  0.1414170E+02 -0.5857700E+01 -0.2568960E-01  0.2047714E+00  0.1865082E+01  0.5939516E-01 -0.1959682E+00
  0.1464780E+02 -0.4443350E+01 -0.2568960E-01  0.2064337E+00  0.1869138E+01  0.6067827E-01 -0.1973145E+00
  0.1501280E+02 -0.2986230E+01 -0.2568960E-01  0.2071130E+00  0.1873287E+01  0.6169870E-01 -0.1977095E+00
  0.1523320E+02 -0.1500330E+01 -0.2568960E-01  0.2071095E+00  0.1877060E+01  0.6244316E-01 -0.1974720E+00
  0.1530690E+02  0.0000000E+00 -0.1027320E+00  0.2067096E+00  0.1879606E+01  0.6282417E-01 -0.1969314E+00
  0.1523320E+02  0.1500340E+01 -0.1027320E+00  0.2076000E+00  0.1880062E+01  0.6318507E-01 -0.1977509E+00
  0.1501280E+02  0.2986230E+01 -0.1027320E+00  0.2085366E+00  0.1879374E+01  0.6333324E-01 -0.1986867E+00
  0.1464780E+02  0.4443360E+01 -0.1027320E+00  0.2088073E+00  0.1878330E+01  0.6320794E-01 -0.1990107E+00
  0.1414170E+02  0.5857700E+01 -0.1027320E+00  0.2081509E+00  0.1877222E+01  0.6278921E-01 -0.1984548E+00
  0.1349950E+02  0.7215620E+01 -0.1027320E+00  0.2066089E+00  0.1875984E+01  0.6208029E-01 -0.1970616E+00
  0.1272720E+02  0.8504060E+01 -0.1027320E+00  0.2048399E+00  0.1874048E+01  0.6117027E-01 -0.1954931E+00
  0.1183240E+02  0.9710600E+01 -0.1027320E+00  0.2036943E+00  0.1870898E+01  0.6021550E-01 -0.1945905E+00
  0.1082360E+02  0.1082360E+02 -0.1027320E+00  0.2023705E+00  0.1867339E+01  0.5913577E-01 -0.1935375E+00
  0.9710590E+01  0.1183240E+02 -0.1027320E+00  0.1993281E+00  0.1864295E+01  0.5766628E-01 -0.1908043E+00
  0.8504060E+01  0.1272720E+02 -0.1027320E+00  0.1973726E+00  0.1859581E+01  0.5620916E-01 -0.1891996E+00
  0.7215620E+01  0.1349950E+02 -0.1027320E+00  0.1935800E+00  0.1856122E+01  0.5448695E-01 -0.1857536E+00
  0.5857700E+01  0.1414170E+02 -0.1027320E+00  0.1863296E+00  0.1855748E+01  0.5237933E-01 -0.1788159E+00
  0.4443360E+01  0.1464780E+02 -0.1027320E+00  0.1761311E+00  0.1857350E+01  0.4978307E-01 -0.1689491E+00
  0.2986230E+01  0.1501280E+02 -0.1027320E+00  0.1534669E+00  0.1871303E+01  0.4542682E-01 -0.1465895E+00
  0.1500340E+01  0.1523320E+02 -0.1027320E+00  0.6101349E-01  0.2089563E+01  0.3025106E-01 -0.5298604E-01
 -0.6690860E-06  0.1530690E+02 -0.1027320E+00  0.2423156E-01 -0.2554933E+01  0.2017991E-01  0.1341415E-01
 -0.1500340E+01  0.1523320E+02 -0.1027320E+00  0.8379519E-01 -0.1707685E+01  0.1143478E-01  0.8301132E-01
 -0.2986230E+01  0.1501280E+02 -0.1027320E+00  0.1909241E+00 -0.1581718E+01  0.2085159E-02  0.1909127E+00
 -0.4443360E+01  0.1464780E+02 -0.1027320E+00  0.2190395E+00 -0.1560064E+01 -0.2350739E-02  0.2190269E+00
 -0.5857700E+01  0.1414170E+02 -0.1027320E+00  0.2321394E+00 -0.1545188E+01 -0.5943970E-02  0.2320633E+00
 -0.7215620E+01  0.1349950E+02 -0.1027320E+00  0.2413054E+00 -0.1532082E+01 -0.9339544E-02  0.2411245E+00
 -0.8504060E+01  0.1272720E+02 -0.1027320E+00  0.2466326E+00 -0.1520937E+01 -0.1229178E-01  0.2463261E+00
 -0.9710590E+01  0.1183240E+02 -0.1027320E+00  0.2498170E+00 -0.1511149E+01 -0.1489207E-01  0.2493727E+00
 -0.1082360E+02  0.1082360E+02 -0.1027320E+00  0.2539773E+00 -0.1502204E+01 -0.1740713E-01  0.2533800E+00
 -0.1183240E+02  0.9710590E+01 -0.1027320E+00  0.2561851E+00 -0.1494151E+01 -0.1961630E-01  0.2554329E+00
 -0.1272720E+02  0.8504060E+01 -0.1027320E+00  0.2581901E+00 -0.1487255E+01 -0.2154460E-01  0.2572896E+00
 -0.1349950E+02  0.7215620E+01 -0.1027320E+00  0.2608704E+00 -0.1481634E+01 -0.2322890E-01  0.2598341E+00
 -0.1414170E+02  0.5857690E+01 -0.1027320E+00  0.2632609E+00 -0.1477223E+01 -0.2459815E-01  0.2621092E+00
 -0.1464780E+02  0.4443360E+01 -0.1027320E+00  0.2646935E+00 -0.1473972E+01 -0.2558869E-01  0.2634537E+00
 -0.1501280E+02  0.2986230E+01 -0.1027320E+00  0.2651547E+00 -0.1471854E+01 -0.2619233E-01  0.2638579E+00
 -0.1523320E+02  0.1500340E+01 -0.1027320E+00  0.2649609E+00 -0.1470852E+01 -0.2643734E-01  0.2636386E+00
 -0.1530690E+02 -0.1338170E-05 -0.1027320E+00  0.2648678E+00 -0.1471161E+01 -0.2634663E-01  0.2635541E+00
 -0.1523320E+02 -0.1500340E+01 -0.1027320E+00  0.2656457E+00 -0.1473054E+01 -0.2592352E-01  0.2643778E+00
 -0.1501280E+02 -0.2986230E+01 -0.1027320E+00  0.2665030E+00 -0.1476290E+01 -0.2514870E-01  0.2653138E+00
 -0.1464780E+02 -0.4443360E+01 -0.1027320E+00  0.2667136E+00 -0.1480670E+01 -0.2400536E-01  0.2656311E+00
 -0.1414170E+02 -0.5857700E+01 -0.1027320E+00  0.2660146E+00 -0.1486104E+01 -0.2250240E-01  0.2650612E+00
 -0.1349950E+02 -0.7215620E+01 -0.1027320E+00  0.2644514E+00 -0.1492604E+01 -0.2065712E-01  0.2636434E+00
 -0.1272720E+02 -0.8504060E+01 -0.1027320E+00  0.2626935E+00 -0.1500376E+01 -0.1848373E-01  0.2620424E+00
 -0.1183240E+02 -0.9710600E+01 -0.1027320E+00  0.2615891E+00 -0.1509728E+01 -0.1596487E-01  0.2611015E+00
 -0.1082360E+02 -0.1082360E+02 -0.1027320E+00  0.2603324E+00 -0.1520454E+01 -0.1310020E-01  0.2600026E+00
 -0.9710600E+01 -0.1183240E+02 -0.1027320E+00  0.2574005E+00 -0.1532055E+01 -0.9969605E-02  0.2572073E+00
 -0.8504050E+01 -0.1272720E+02 -0.1027320E+00  0.2556135E+00 -0.1545030E+01 -0.6585607E-02  0.2555287E+00
 -0.7215620E+01 -0.1349950E+02 -0.1027320E+00  0.2520079E+00 -0.1559389E+01 -0.2874723E-02  0.2519915E+00
 -0.5857690E+01 -0.1414170E+02 -0.1027320E+00  0.2449440E+00 -0.1575723E+01  0.1206705E-02  0.2449410E+00
 -0.4443360E+01 -0.1464780E+02 -0.1027320E+00  0.2349806E+00 -0.1594132E+01  0.5482914E-02  0.2349167E+00
 -0.2986230E+01 -0.1501280E+02 -0.1027320E+00  0.2125324E+00 -0.1617642E+01  0.9952634E-02  0.2122993E+00
 -0.1500340E+01 -0.1523320E+02 -0.1027320E+00  0.1189270E+00 -0.1684121E+01  0.1344858E-01  0.1181641E+00
  0.1825330E-06 -0.1530690E+02 -0.1027320E+00  0.5467311E-01 -0.1905409E+01  0.1795484E-01  0.5164080E-01
  0.1500340E+01 -0.1523320E+02 -0.1027320E+00  0.2980642E-01  0.2499657E+01  0.2387309E-01 -0.1784651E-01
  0.2986230E+01 -0.1501280E+02 -0.1027320E+00  0.1296503E+00  0.1832636E+01  0.3356097E-01 -0.1252313E+00
  0.4443360E+01 -0.1464780E+02 -0.1027320E+00  0.1577801E+00  0.1815126E+01  0.3816789E-01 -0.1530940E+00
  0.5857700E+01 -0.1414170E+02 -0.1027320E+00  0.1711213E+00  0.1816572E+01  0.4163537E-01 -0.1659789E+00
  0.7215620E+01 -0.1349950E+02 -0.1027320E+00  0.1805355E+00  0.1820588E+01  0.4462879E-01 -0.1749324E+00
  0.8504060E+01 -0.1272720E+02 -0.1027320E+00  0.1861631E+00  0.1827852E+01  0.4732900E-01 -0.1800462E+00
  0.9710600E+01 -0.1183240E+02 -0.1027320E+00  0.1896791E+00  0.1836531E+01  0.4981324E-01 -0.1830213E+00
  0.1082360E+02 -0.1082360E+02 -0.1027320E+00  0.1941064E+00  0.1842868E+01  0.5216181E-01 -0.1869664E+00
  0.1183240E+02 -0.9710590E+01 -0.1027320E+00  0.1965848E+00  0.1850016E+01  0.5417982E-01 -0.1889712E+00
  0.1272720E+02 -0.8504060E+01 -0.1027320E+00  0.1988431E+00  0.1856444E+01  0.5602981E-01 -0.1907858E+00
  0.1349950E+02 -0.7215620E+01 -0.1027320E+00  0.2017353E+00  0.1861118E+01  0.5774880E-01 -0.1932931E+00
  0.1414170E+02 -0.5857700E+01 -0.1027320E+00  0.2043232E+00  0.1865105E+01  0.5926977E-01 -0.1955379E+00
  0.1464780E+02 -0.4443350E+01 -0.1027320E+00  0.2059627E+00  0.1869181E+01  0.6054822E-01 -0.1968617E+00
  0.1501280E+02 -0.2986230E+01 -0.1027320E+00  0.2066364E+00  0.1873331E+01  0.6156542E-01 -0.1972518E+00
  0.1523320E+02 -0.1500330E+01 -0.1027320E+00  0.2066401E+00  0.1877097E+01  0.6230887E-01 -0.1970222E+00
  0.1530690E+02  0.0000000E+00 -0.2310450E+00  0.2059345E+00  0.1879661E+01  0.6259936E-01 -0.1961895E+00
  0.1523320E+02  0.1500340E+01 -0.2310450E+00  0.2068116E+00  0.1880129E+01  0.6295818E-01 -0.1969957E+00
  0.1501280E+02  0.2986230E+01 -0.2310450E+00  0.2077346E+00  0.1879448E+01  0.6310445E-01 -0.1979179E+00
  0.1464780E+02  0.4443360E+01 -0.2310450E+00  0.2080121E+00  0.1878399E+01  0.6298074E-01 -0.1982484E+00
  0.1414170E+02  0.5857700E+01 -0.2310450E+00  0.2073891E+00  0.1877245E+01  0.6256410E-01 -0.1977270E+00
  0.1349950E+02  0.7215620E+01 -0.2310450E+00  0.2058997E+00  0.1875968E+01  0.6186394E-01 -0.1963862E+00
  0.1272720E+02  0.8504060E+01 -0.2310450E+00  0.2041749E+00  0.1874009E+01  0.6096419E-01 -0.1948609E+00
  0.1183240E+02  0.9710600E+01 -0.2310450E+00  0.2030247E+00  0.1870852E+01  0.6000861E-01 -0.1939535E+00
  0.1082360E+02  0.1082360E+02 -0.2310450E+00  0.2016783E+00  0.1867308E+01  0.5892758E-01 -0.1928773E+00
  0.9710590E+01  0.1183240E+02 -0.2310450E+00  0.1987203E+00  0.1864211E+01  0.5747448E-01 -0.1902273E+00
  0.8504060E+01  0.1272720E+02 -0.2310450E+00  0.1967289E+00  0.1859537E+01  0.5601760E-01 -0.1885850E+00
  0.7215620E+01  0.1349950E+02 -0.2310450E+00  0.1929531E+00  0.1856081E+01  0.5430289E-01 -0.1851542E+00
  0.5857700E+01  0.1414170E+02 -0.2310450E+00  0.1857604E+00  0.1855658E+01  0.5220328E-01 -0.1782743E+00
  0.4443360E+01  0.1464780E+02 -0.2310450E+00  0.1756259E+00  0.1857250E+01  0.4962349E-01 -0.1684695E+00
  0.2986230E+01  0.1501280E+02 -0.2310450E+00  0.1530359E+00  0.1871146E+01  0.4527636E-01 -0.1461850E+00
  0.1500340E+01  0.1523320E+02 -0.2310450E+00  0.6087676E-01  0.2089033E+01  0.3015524E-01 -0.5288328E-01
 -0.6690860E-06  0.1530690E+02 -0.2310450E+00  0.2414857E-01 -0.2555178E+01  0.2011408E-01  0.1336329E-01
 -0.1500340E+01  0.1523320E+02 -0.2310450E+00  0.8356761E-01 -0.1707513E+01  0.1138955E-01  0.8278783E-01
 -0.2986230E+01  0.1501280E+02 -0.2310450E+00  0.1903380E+00 -0.1581659E+01  0.2067507E-02  0.1903268E+00
 -0.4443360E+01  0.1464780E+02 -0.2310450E+00  0.2183711E+00 -0.1560035E+01 -0.2349976E-02  0.2183585E+00
 -0.5857700E+01  0.1414170E+02 -0.2310450E+00  0.2313950E+00 -0.1545169E+01 -0.5929390E-02  0.2313190E+00
 -0.7215620E+01  0.1349950E+02 -0.2310450E+00  0.2405047E+00 -0.1532089E+01 -0.9306987E-02  0.2403246E+00
 -0.8504060E+01  0.1272720E+02 -0.2310450E+00  0.2458091E+00 -0.1520946E+01 -0.1224861E-01  0.2455038E+00
 -0.9710590E+01  0.1183240E+02 -0.2310450E+00  0.2490267E+00 -0.1511144E+01 -0.1484615E-01  0.2485838E+00
 -0.1082360E+02  0.1082360E+02 -0.2310450E+00  0.2530929E+00 -0.1502207E+01 -0.1734589E-01  0.2524978E+00
 -0.1183240E+02  0.9710590E+01 -0.2310450E+00  0.2553245E+00 -0.1494157E+01 -0.1954864E-01  0.2545750E+00
 -0.1272720E+02  0.8504060E+01 -0.2310450E+00  0.2573328E+00 -0.1487273E+01 -0.2146834E-01  0.2564357E+00
 -0.1349950E+02  0.7215620E+01 -0.2310450E+00  0.2599635E+00 -0.1481650E+01 -0.2314406E-01  0.2589312E+00
 -0.1414170E+02  0.5857690E+01 -0.2310450E+00  0.2622953E+00 -0.1477237E+01 -0.2450435E-01  0.2611482E+00
 -0.1464780E+02  0.4443360E+01 -0.2310450E+00  0.2636917E+00 -0.1473983E+01 -0.2548890E-01  0.2624569E+00
 -0.1501280E+02  0.2986230E+01 -0.2310450E+00  0.2641436E+00 -0.1471860E+01 -0.2609083E-01  0.2628519E+00
 -0.1523320E+02  0.1500340E+01 -0.2310450E+00  0.2639620E+00 -0.1470858E+01 -0.2633595E-01  0.2626449E+00
 -0.1530690E+02 -0.1338170E-05 -0.2310450E+00  0.2638788E+00 -0.1471163E+01 -0.2624757E-01  0.2625701E+00
 -0.1523320E+02 -0.1500340E+01 -0.2310450E+00  0.2646445E+00 -0.1473054E+01 -0.2582573E-01  0.2633814E+00
 -0.1501280E+02 -0.2986230E+01 -0.2310450E+00  0.2654872E+00 -0.1476290E+01 -0.2505289E-01  0.2643025E+00
 -0.1464780E+02 -0.4443360E+01 -0.2310450E+00  0.2657050E+00 -0.1480669E+01 -0.2391487E-01  0.2646266E+00
 -0.1414170E+02 -0.5857700E+01 -0.2310450E+00  0.2650399E+00 -0.1486109E+01 -0.2241879E-01  0.2640900E+00
 -0.1349950E+02 -0.7215620E+01 -0.2310450E+00  0.2635312E+00 -0.1492623E+01 -0.2058015E-01  0.2627264E+00
 -0.1272720E+02 -0.8504060E+01 -0.2310450E+00  0.2618175E+00 -0.1500398E+01 -0.1841635E-01  0.2611690E+00
 -0.1183240E+02 -0.9710600E+01 -0.2310450E+00  0.2607083E+00 -0.1509747E+01 -0.1590627E-01  0.2602226E+00
 -0.1082360E+02 -0.1082360E+02 -0.2310450E+00  0.2594282E+00 -0.1520459E+01 -0.1305348E-01  0.2590996E+00
 -0.9710600E+01 -0.1183240E+02 -0.2310450E+00  0.2565810E+00 -0.1532072E+01 -0.9933463E-02  0.2563887E+00
 -0.8504050E+01 -0.1272720E+02 -0.2310450E+00  0.2547583E+00 -0.1545043E+01 -0.6560257E-02  0.2546738E+00
 -0.7215620E+01 -0.1349950E+02 -0.2310450E+00  0.2511671E+00 -0.1559400E+01 -0.2862283E-02  0.2511508E+00
 -0.5857690E+01 -0.1414170E+02 -0.2310450E+00  0.2441626E+00 -0.1575716E+01  0.1201316E-02  0.2441596E+00
 -0.4443360E+01 -0.1464780E+02 -0.2310450E+00  0.2342620E+00 -0.1594121E+01  0.5463467E-02  0.2341983E+00
 -0.2986230E+01 -0.1501280E+02 -0.2310450E+00  0.2118881E+00 -0.1617608E+01  0.9915218E-02  0.2116560E+00
 -0.1500340E+01 -0.1523320E+02 -0.2310450E+00  0.1185839E+00 -0.1684057E+01  0.1340221E-01  0.1178241E+00
  0.1825330E-06 -0.1530690E+02 -0.2310450E+00  0.5447914E-01 -0.1905540E+01  0.1789789E-01  0.5145525E-01
  0.1500340E+01 -0.1523320E+02 -0.2310450E+00  0.2975234E-01  0.2497704E+01  0.2379495E-01 -0.1786062E-01
  0.2986230E+01 -0.1501280E+02 -0.2310450E+00  0.1292861E+00  0.1832463E+01  0.3344511E-01 -0.1248852E+00
  0.4443360E+01 -0.1464780E+02 -0.2310450E+00  0.1573334E+00  0.1814990E+01  0.3803908E-01 -0.1526657E+00
  0.5857700E+01 -0.1414170E+02 -0.2310450E+00  0.1705968E+00  0.1816471E+01  0.4149103E-01 -0.1654743E+00
  0.7215620E+01 -0.1349950E+02 -0.2310450E+00  0.1799566E+00  0.1820544E+01  0.4447800E-01 -0.1743734E+00
  0.8504060E+01 -0.1272720E+02 -0.2310450E+00  0.1855587E+00  0.1827804E+01  0.4716682E-01 -0.1794640E+00
  0.9710600E+01 -0.1183240E+02 -0.2310450E+00  0.1891048E+00  0.1836423E+01  0.4964267E-01 -0.1824725E+00
  0.1082360E+02 -0.1082360E+02 -0.2310450E+00  0.1934411E+00  0.1842844E+01  0.5197845E-01 -0.1863269E+00
  0.1183240E+02 -0.9710590E+01 -0.2310450E+00  0.1959404E+00  0.1849957E+01  0.5399115E-01 -0.1883550E+00
  0.1272720E+02 -0.8504060E+01 -0.2310450E+00  0.1982014E+00  0.1856377E+01  0.5583616E-01 -0.1901740E+00
  0.1349950E+02 -0.7215620E+01 -0.2310450E+00  0.2010432E+00  0.1861102E+01  0.5754763E-01 -0.1926309E+00
  0.1414170E+02 -0.5857700E+01 -0.2310450E+00  0.2035749E+00  0.1865141E+01  0.5905962E-01 -0.1948197E+00
  0.1464780E+02 -0.4443350E+01 -0.2310450E+00  0.2051774E+00  0.1869253E+01  0.6033151E-01 -0.1961068E+00
  0.1501280E+02 -0.2986230E+01 -0.2310450E+00  0.2058406E+00  0.1873414E+01  0.6134465E-01 -0.1964871E+00
  0.1523320E+02 -0.1500330E+01 -0.2310450E+00  0.2058559E+00  0.1877164E+01  0.6208562E-01 -0.1962703E+00
  0.1530690E+02  0.0000000E+00 -0.4105000E+00  0.2048685E+00  0.1879737E+01  0.6229019E-01 -0.1951693E+00
  0.1523320E+02  0.1500340E+01 -0.4105000E+00  0.2057267E+00  0.1880209E+01  0.6264368E-01 -0.1959573E+00
  0.1501280E+02  0.2986230E+01 -0.4105000E+00  0.2066282E+00  0.1879535E+01  0.6278549E-01 -0.1968584E+00
  0.1464780E+02  0.4443360E+01 -0.4105000E+00  0.2069168E+00  0.1878472E+01  0.6266358E-01 -0.1972000E+00
  0.1414170E+02  0.5857700E+01 -0.4105000E+00  0.2063404E+00  0.1877278E+01  0.6225415E-01 -0.1967251E+00
  0.1349950E+02  0.7215620E+01 -0.4105000E+00  0.2049257E+00  0.1875936E+01  0.6156502E-01 -0.1954592E+00
  0.1272720E+02  0.8504060E+01 -0.4105000E+00  0.2032617E+00  0.1873922E+01  0.6067460E-01 -0.1939946E+00
  0.1183240E+02  0.9710600E+01 -0.4105000E+00  0.2021019E+00  0.1870776E+01  0.5972125E-01 -0.1930766E+00
  0.1082360E+02  0.1082360E+02 -0.4105000E+00  0.2007184E+00  0.1867255E+01  0.5863700E-01 -0.1919625E+00
  0.9710590E+01  0.1183240E+02 -0.4105000E+00  0.1978783E+00  0.1864080E+01  0.5720601E-01 -0.1894289E+00
  0.8504060E+01  0.1272720E+02 -0.4105000E+00  0.1958308E+00  0.1859478E+01  0.5575078E-01 -0.1877273E+00
  0.7215620E+01  0.1349950E+02 -0.4105000E+00  0.1920462E+00  0.1856056E+01  0.5404306E-01 -0.1842853E+00
  0.5857700E+01  0.1414170E+02 -0.4105000E+00  0.1849310E+00  0.1855557E+01  0.5195228E-01 -0.1774836E+00
  0.4443360E+01  0.1464780E+02 -0.4105000E+00  0.1748415E+00  0.1857165E+01  0.4938763E-01 -0.1677212E+00
  0.2986230E+01  0.1501280E+02 -0.4105000E+00  0.1523592E+00  0.1871039E+01  0.4506051E-01 -0.1455434E+00
  0.1500340E+01  0.1523320E+02 -0.4105000E+00  0.6059843E-01  0.2088924E+01  0.3001166E-01 -0.5264475E-01
 -0.6690860E-06  0.1530690E+02 -0.4105000E+00  0.2404042E-01 -0.2555346E+01  0.2002622E-01  0.1330008E-01
 -0.1500340E+01  0.1523320E+02 -0.4105000E+00  0.8316816E-01 -0.1707548E+01  0.1133795E-01  0.8239172E-01
 -0.2986230E+01  0.1501280E+02 -0.4105000E+00  0.1894566E+00 -0.1581636E+01  0.2053527E-02  0.1894455E+00
 -0.4443360E+01  0.1464780E+02 -0.4105000E+00  0.2173611E+00 -0.1560028E+01 -0.2340485E-02  0.2173485E+00
 -0.5857700E+01  0.1414170E+02 -0.4105000E+00  0.2303201E+00 -0.1545148E+01 -0.5906750E-02  0.2302444E+00
 -0.7215620E+01  0.1349950E+02 -0.4105000E+00  0.2393555E+00 -0.1532103E+01 -0.9259182E-02  0.2391763E+00
 -0.8504060E+01  0.1272720E+02 -0.4105000E+00  0.2446592E+00 -0.1520960E+01 -0.1218794E-01  0.2443555E+00
 -0.9710590E+01  0.1183240E+02 -0.4105000E+00  0.2479310E+00 -0.1511147E+01 -0.1478006E-01  0.2474900E+00
 -0.1082360E+02  0.1082360E+02 -0.4105000E+00  0.2518705E+00 -0.1502209E+01 -0.1726165E-01  0.2512783E+00