 VARIABLES="X" "Y" "Z" "abs(eta) (m)" "angle(phi) (rad)" "PRE1" "PRE2"
ZONE N=   3200 ,E =    3136 ,F=FEPOINT,ET=QUADRILATERAL
  0.1530690E+02  0.0000000E+00  0.0000000E+00  0.3625594E+00 -0.1354238E+01 -0.7790306E-01  0.3540910E+00
  0.1523320E+02  0.1500340E+01  0.0000000E+00  0.3624659E+00 -0.1356112E+01 -0.7721943E-01  0.3541450E+00
  0.1501280E+02  0.2986230E+01  0.0000000E+00  0.3615213E+00 -0.1359558E+01 -0.7580042E-01  0.3534855E+00
  0.1464780E+02  0.4443360E+01  0.0000000E+00  0.3600474E+00 -0.1364751E+01 -0.7366216E-01  0.3524316E+00
  0.1414170E+02  0.5857700E+01  0.0000000E+00  0.3597659E+00 -0.1372442E+01 -0.7089395E-01  0.3527117E+00
  0.1349950E+02  0.7215620E+01  0.0000000E+00  0.3610615E+00 -0.1382545E+01 -0.6756965E-01  0.3546826E+00
  0.1272720E+02  0.8504060E+01  0.0000000E+00  0.3609604E+00 -0.1393960E+01 -0.6349885E-01  0.3553313E+00
  0.1183240E+02  0.9710600E+01  0.0000000E+00  0.3570932E+00 -0.1406000E+01 -0.5858156E-01  0.3522553E+00
  0.1082360E+02  0.1082360E+02  0.0000000E+00  0.3531826E+00 -0.1420115E+01 -0.5301697E-01  0.3491806E+00
  0.9710590E+01  0.1183240E+02  0.0000000E+00  0.3498582E+00 -0.1436511E+01 -0.4683987E-01  0.3467085E+00
  0.8504060E+01  0.1272720E+02  0.0000000E+00  0.3422577E+00 -0.1454045E+01 -0.3986820E-01  0.3399277E+00
  0.7215620E+01  0.1349950E+02  0.0000000E+00  0.3355408E+00 -0.1473917E+01 -0.3245631E-01  0.3339674E+00
  0.5857700E+01  0.1414170E+02  0.0000000E+00  0.3258477E+00 -0.1495692E+01 -0.2444952E-01  0.3249292E+00
  0.4443360E+01  0.1464780E+02  0.0000000E+00  0.3091996E+00 -0.1520557E+01 -0.1552753E-01  0.3088094E+00
  0.2986230E+01  0.1501280E+02  0.0000000E+00  0.2784996E+00 -0.1549872E+01 -0.5827007E-02  0.2784387E+00
  0.1500340E+01  0.1523320E+02  0.0000000E+00  0.1548733E+00 -0.1611278E+01  0.6267748E-02  0.1547464E+00
 -0.6690860E-06  0.1530690E+02  0.0000000E+00  0.7096609E-01 -0.1829419E+01  0.1814950E-01  0.6860600E-01
 -0.1500340E+01  0.1523320E+02  0.0000000E+00  0.3835927E-01  0.2561863E+01  0.3209177E-01 -0.2101314E-01
 -0.2986230E+01  0.1501280E+02  0.0000000E+00  0.1690680E+00  0.1891727E+01  0.5333242E-01 -0.1604358E+00
 -0.4443360E+01  0.1464780E+02  0.0000000E+00  0.2069326E+00  0.1881952E+01  0.6335431E-01 -0.1969958E+00
 -0.5857700E+01  0.1414170E+02  0.0000000E+00  0.2276220E+00  0.1887796E+01  0.7095357E-01 -0.2162807E+00
 -0.7215620E+01  0.1349950E+02  0.0000000E+00  0.2405424E+00  0.1899101E+01  0.7756016E-01 -0.2276951E+00
 -0.8504060E+01  0.1272720E+02  0.0000000E+00  0.2497772E+00  0.1911618E+01  0.8349093E-01 -0.2354101E+00
 -0.9710590E+01  0.1183240E+02  0.0000000E+00  0.2594876E+00  0.1921178E+01  0.8907066E-01 -0.2437216E+00
 -0.1082360E+02  0.1082360E+02  0.0000000E+00  0.2646445E+00  0.1933469E+01  0.9388914E-01 -0.2474299E+00
 -0.1183240E+02  0.9710590E+01  0.0000000E+00  0.2703177E+00  0.1943624E+01  0.9846323E-01 -0.2517472E+00
 -0.1272720E+02  0.8504060E+01  0.0000000E+00  0.2757797E+00  0.1952331E+01  0.1026853E+00 -0.2559495E+00
 -0.1349950E+02  0.7215620E+01  0.0000000E+00  0.2773093E+00  0.1963474E+01  0.1061162E+00 -0.2562026E+00
 -0.1414170E+02  0.5857690E+01  0.0000000E+00  0.2773080E+00  0.1974362E+01  0.1088989E+00 -0.2550310E+00
 -0.1464780E+02  0.4443360E+01  0.0000000E+00  0.2787520E+00  0.1981533E+01  0.1113015E+00 -0.2555673E+00
 -0.1501280E+02  0.2986230E+01  0.0000000E+00  0.2813667E+00  0.1985379E+01  0.1133367E+00 -0.2575307E+00
 -0.1523320E+02  0.1500340E+01  0.0000000E+00  0.2834003E+00  0.1988017E+01  0.1148398E+00 -0.2590898E+00
 -0.1530690E+02 -0.1338170E-05  0.0000000E+00  0.2845455E+00  0.1989854E+01  0.1157815E+00 -0.2599247E+00
 -0.1523320E+02 -0.1500340E+01  0.0000000E+00  0.2847333E+00  0.1990958E+01  0.1161450E+00 -0.2599680E+00
 -0.1501280E+02 -0.2986230E+01  0.0000000E+00  0.2840519E+00  0.1991232E+01  0.1159380E+00 -0.2593142E+00
 -0.1464780E+02 -0.4443360E+01  0.0000000E+00  0.2828134E+00  0.1990406E+01  0.1152194E+00 -0.2582787E+00
 -0.1414170E+02 -0.5857700E+01  0.0000000E+00  0.2827054E+00  0.1986839E+01  0.1142536E+00 -0.2585894E+00
 -0.1349950E+02 -0.7215620E+01  0.0000000E+00  0.2840722E+00  0.1980118E+01  0.1130571E+00 -0.2606053E+00
 -0.1272720E+02 -0.8504060E+01  0.0000000E+00  0.2839901E+00  0.1973112E+01  0.1111965E+00 -0.2613154E+00
 -0.1183240E+02 -0.9710600E+01  0.0000000E+00  0.2801165E+00  0.1967849E+01  0.1083217E+00 -0.2583247E+00
 -0.1082360E+02 -0.1082360E+02  0.0000000E+00  0.2761448E+00  0.1961296E+01  0.1051146E+00 -0.2553563E+00
 -0.9710600E+01 -0.1183240E+02  0.0000000E+00  0.2727125E+00  0.1953255E+01  0.1017769E+00 -0.2530090E+00
 -0.8504050E+01 -0.1272720E+02  0.0000000E+00  0.2649619E+00  0.1947466E+01  0.9745988E-01 -0.2463866E+00
 -0.7215620E+01 -0.1349950E+02  0.0000000E+00  0.2579832E+00  0.1939805E+01  0.9305213E-01 -0.2406172E+00
 -0.5857690E+01 -0.1414170E+02  0.0000000E+00  0.2479203E+00  0.1933061E+01  0.8786126E-01 -0.2318294E+00
 -0.4443360E+01 -0.1464780E+02  0.0000000E+00  0.2308676E+00  0.1931190E+01  0.8141381E-01 -0.2160362E+00
 -0.2986230E+01 -0.1501280E+02  0.0000000E+00  0.1995875E+00  0.1938909E+01  0.7182261E-01 -0.1862168E+00
 -0.1500340E+01 -0.1523320E+02  0.0000000E+00  0.7644831E-01  0.2157817E+01  0.4234342E-01 -0.6365045E-01
  0.1825330E-06 -0.1530690E+02  0.0000000E+00  0.3145956E-01 -0.2356996E+01  0.2226309E-01  0.2222743E-01
  0.1500340E+01 -0.1523320E+02  0.0000000E+00  0.1121388E+00 -0.1607255E+01  0.4087524E-02  0.1120643E+00
  0.2986230E+01 -0.1501280E+02  0.0000000E+00  0.2531259E+00 -0.1503936E+01 -0.1691148E-01  0.2525603E+00
  0.4443360E+01 -0.1464780E+02  0.0000000E+00  0.2908634E+00 -0.1479294E+01 -0.2657760E-01  0.2896466E+00
  0.5857700E+01 -0.1414170E+02  0.0000000E+00  0.3111785E+00 -0.1459099E+01 -0.3468563E-01  0.3092394E+00
  0.7215620E+01 -0.1349950E+02  0.0000000E+00  0.3235822E+00 -0.1441737E+01 -0.4164556E-01  0.3208911E+00
  0.8504060E+01 -0.1272720E+02  0.0000000E+00  0.3322626E+00 -0.1426005E+01 -0.4794097E-01  0.3287858E+00
  0.9710600E+01 -0.1183240E+02  0.0000000E+00  0.3415644E+00 -0.1411751E+01 -0.5409565E-01  0.3372535E+00
  0.1082360E+02 -0.1082360E+02  0.0000000E+00  0.3462010E+00 -0.1398748E+01 -0.5926977E-01  0.3410898E+00
  0.1183240E+02 -0.9710590E+01  0.0000000E+00  0.3513961E+00 -0.1387676E+01 -0.6398862E-01  0.3455209E+00
  0.1272720E+02 -0.8504060E+01  0.0000000E+00  0.3563898E+00 -0.1378444E+01 -0.6813058E-01  0.3498170E+00
  0.1349950E+02 -0.7215620E+01  0.0000000E+00  0.3573132E+00 -0.1370123E+01 -0.7122298E-01  0.3501428E+00
  0.1414170E+02 -0.5857700E+01  0.0000000E+00  0.3567062E+00 -0.1363006E+01 -0.7358806E-01  0.3490331E+00
  0.1464780E+02 -0.4443350E+01  0.0000000E+00  0.3576973E+00 -0.1357935E+01 -0.7556614E-01  0.3496243E+00
  0.1501280E+02 -0.2986230E+01  0.0000000E+00  0.3599797E+00 -0.1355085E+01 -0.7705086E-01  0.3516369E+00
  0.1523320E+02 -0.1500330E+01  0.0000000E+00  0.3617096E+00 -0.1353885E+01 -0.7784522E-01  0.3532336E+00
  0.1530690E+02  0.0000000E+00 -0.2568960E-01  0.3622515E+00 -0.1354249E+01 -0.7783291E-01  0.3537911E+00
  0.1523320E+02  0.1500340E+01 -0.2568960E-01  0.3621586E+00 -0.1356126E+01 -0.7714882E-01  0.3538459E+00
  0.1501280E+02  0.2986230E+01 -0.2568960E-01  0.3612170E+00 -0.1359572E+01 -0.7573182E-01  0.3531889E+00
  0.1464780E+02  0.4443360E+01 -0.2568960E-01  0.3597461E+00 -0.1364768E+01 -0.7359453E-01  0.3521379E+00
  0.1414170E+02  0.5857700E+01 -0.2568960E-01  0.3594573E+00 -0.1372456E+01 -0.7082827E-01  0.3524101E+00
  0.1349950E+02  0.7215620E+01 -0.2568960E-01  0.3607323E+00 -0.1382550E+01 -0.6750605E-01  0.3543596E+00
  0.1272720E+02  0.8504060E+01 -0.2568960E-01  0.3606208E+00 -0.1393959E+01 -0.6343936E-01  0.3549969E+00
  0.1183240E+02  0.9710600E+01 -0.2568960E-01  0.3567747E+00 -0.1406008E+01 -0.5852657E-01  0.3519416E+00
  0.1082360E+02  0.1082360E+02 -0.2568960E-01  0.3528746E+00 -0.1420126E+01 -0.5296666E-01  0.3488768E+00
  0.9710590E+01  0.1183240E+02 -0.2568960E-01  0.3495416E+00 -0.1436515E+01 -0.4679602E-01  0.3463949E+00
  0.8504060E+01  0.1272720E+02 -0.2568960E-01  0.3419722E+00 -0.1454062E+01 -0.3982922E-01  0.3396448E+00
  0.7215620E+01  0.1349950E+02 -0.2568960E-01  0.3352596E+00 -0.1473935E+01 -0.3242294E-01  0.3336881E+00
  0.5857700E+01  0.1414170E+02 -0.2568960E-01  0.3255659E+00 -0.1495707E+01 -0.2442346E-01  0.3246485E+00
  0.4443360E+01  0.1464780E+02 -0.2568960E-01  0.3089551E+00 -0.1520564E+01 -0.1551302E-01  0.3085654E+00
  0.2986230E+01  0.1501280E+02 -0.2568960E-01  0.2782808E+00 -0.1549886E+01 -0.5818615E-02  0.2782199E+00
  0.1500340E+01  0.1523320E+02 -0.2568960E-01  0.1547542E+00 -0.1611277E+01  0.6262899E-02  0.1546274E+00
 -0.6690860E-06  0.1530690E+02 -0.2568960E-01  0.7090526E-01 -0.1829456E+01  0.1813653E-01  0.6854650E-01
 -0.1500340E+01  0.1523320E+02 -0.2568960E-01  0.3832710E-01  0.2561762E+01  0.3206275E-01 -0.2099872E-01
 -0.2986230E+01  0.1501280E+02 -0.2568960E-01  0.1689464E+00  0.1891708E+01  0.5329110E-01 -0.1603214E+00
 -0.4443360E+01  0.1464780E+02 -0.2568960E-01  0.2067802E+00  0.1881930E+01  0.6330337E-01 -0.1968520E+00
 -0.5857700E+01  0.1414170E+02 -0.2568960E-01  0.2274298E+00  0.1887790E+01  0.7089250E-01 -0.2160985E+00
 -0.7215620E+01  0.1349950E+02 -0.2568960E-01  0.2403477E+00  0.1899088E+01  0.7749455E-01 -0.2275118E+00
 -0.8504060E+01  0.1272720E+02 -0.2568960E-01  0.2495768E+00  0.1911594E+01  0.8341819E-01 -0.2352233E+00
 -0.9710590E+01  0.1183240E+02 -0.2568960E-01  0.2592535E+00  0.1921183E+01  0.8899153E-01 -0.2435013E+00
 -0.1082360E+02  0.1082360E+02 -0.2568960E-01  0.2644187E+00  0.1933469E+01  0.9380904E-01 -0.2472188E+00
 -0.1183240E+02  0.9710590E+01 -0.2568960E-01  0.2700797E+00  0.1943625E+01  0.9837681E-01 -0.2515254E+00
 -0.1272720E+02  0.8504060E+01 -0.2568960E-01  0.2755176E+00  0.1952342E+01  0.1025904E+00 -0.2557052E+00
 -0.1349950E+02  0.7215620E+01 -0.2568960E-01  0.2770562E+00  0.1963484E+01  0.1060220E+00 -0.2559678E+00
 -0.1414170E+02  0.5857690E+01 -0.2568960E-01  0.2770751E+00  0.1974349E+01  0.1088040E+00 -0.2548182E+00
 -0.1464780E+02  0.4443360E+01 -0.2568960E-01  0.2785247E+00  0.1981506E+01  0.1112037E+00 -0.2553620E+00
 -0.1501280E+02  0.2986230E+01 -0.2568960E-01  0.2811342E+00  0.1985350E+01  0.1132358E+00 -0.2573211E+00
 -0.1523320E+02  0.1500340E+01 -0.2568960E-01  0.2831643E+00  0.1988001E+01  0.1147400E+00 -0.2588759E+00
 -0.1530690E+02 -0.1338170E-05 -0.2568960E-01  0.2843069E+00  0.1989832E+01  0.1156786E+00 -0.2597091E+00
 -0.1523320E+02 -0.1500340E+01 -0.2568960E-01  0.2844959E+00  0.1990937E+01  0.1160428E+00 -0.2597538E+00
 -0.1501280E+02 -0.2986230E+01 -0.2568960E-01  0.2838172E+00  0.1991209E+01  0.1158364E+00 -0.2591025E+00
 -0.1464780E+02 -0.4443360E+01 -0.2568960E-01  0.2825825E+00  0.1990383E+01  0.1151194E+00 -0.2580705E+00
 -0.1414170E+02 -0.5857700E+01 -0.2568960E-01  0.2824666E+00  0.1986827E+01  0.1141542E+00 -0.2583722E+00
 -0.1349950E+02 -0.7215620E+01 -0.2568960E-01  0.2838128E+00  0.1980122E+01  0.1129549E+00 -0.2603669E+00
 -0.1272720E+02 -0.8504060E+01 -0.2568960E-01  0.2837220E+00  0.1973126E+01  0.1110950E+00 -0.2610672E+00
 -0.1183240E+02 -0.9710600E+01 -0.2568960E-01  0.2798692E+00  0.1967845E+01  0.1082249E+00 -0.2580972E+00
 -0.1082360E+02 -0.1082360E+02 -0.2568960E-01  0.2759087E+00  0.1961297E+01  0.1050250E+00 -0.2551380E+00
 -0.9710600E+01 -0.1183240E+02 -0.2568960E-01  0.2724667E+00  0.1953268E+01  0.1016885E+00 -0.2527796E+00
 -0.8504050E+01 -0.1272720E+02 -0.2568960E-01  0.2647489E+00  0.1947454E+01  0.9737852E-01 -0.2461897E+00
 -0.7215620E+01 -0.1349950E+02 -0.2568960E-01  0.2577731E+00  0.1939794E+01  0.9297390E-01 -0.2404222E+00
 -0.5857690E+01 -0.1414170E+02 -0.2568960E-01  0.2477095E+00  0.1933068E+01  0.8778800E-01 -0.2316317E+00
 -0.4443360E+01 -0.1464780E+02 -0.2568960E-01  0.2306954E+00  0.1931175E+01  0.8134973E-01 -0.2158763E+00
 -0.2986230E+01 -0.1501280E+02 -0.2568960E-01  0.1994417E+00  0.1938892E+01  0.7176693E-01 -0.1860820E+00
 -0.1500340E+01 -0.1523320E+02 -0.2568960E-01  0.7639892E-01  0.2157689E+01  0.4230790E-01 -0.6361476E-01
  0.1825330E-06 -0.1530690E+02 -0.2568960E-01  0.3142988E-01 -0.2357192E+01  0.2224644E-01  0.2220211E-01
  0.1500340E+01 -0.1523320E+02 -0.2568960E-01  0.1120403E+00 -0.1607217E+01  0.4079708E-02  0.1119660E+00
  0.2986230E+01 -0.1501280E+02 -0.2568960E-01  0.2529254E+00 -0.1503946E+01 -0.1689554E-01  0.2523605E+00
  0.4443360E+01 -0.1464780E+02 -0.2568960E-01  0.2906350E+00 -0.1479305E+01 -0.2655356E-01  0.2894195E+00
  0.5857700E+01 -0.1414170E+02 -0.2568960E-01  0.3109101E+00 -0.1459105E+01 -0.3465377E-01  0.3089728E+00
  0.7215620E+01 -0.1349950E+02 -0.2568960E-01  0.3233106E+00 -0.1441745E+01 -0.4160789E-01  0.3206221E+00
  0.8504060E+01 -0.1272720E+02 -0.2568960E-01  0.3319879E+00 -0.1426015E+01 -0.4789772E-01  0.3285145E+00
  0.9710600E+01 -0.1183240E+02 -0.2568960E-01  0.3412548E+00 -0.1411759E+01 -0.5404366E-01  0.3369482E+00
  0.1082360E+02 -0.1082360E+02 -0.2568960E-01  0.3458996E+00 -0.1398756E+01 -0.5921545E-01  0.3407933E+00
  0.1183240E+02 -0.9710590E+01 -0.2568960E-01  0.3510827E+00 -0.1387686E+01 -0.6392834E-01  0.3452133E+00
  0.1272720E+02 -0.8504060E+01 -0.2568960E-01  0.3560548E+00 -0.1378447E+01 -0.6806538E-01  0.3494883E+00
  0.1349950E+02 -0.7215620E+01 -0.2568960E-01  0.3569874E+00 -0.1370124E+01 -0.7115754E-01  0.3498236E+00
  0.1414170E+02 -0.5857700E+01 -0.2568960E-01  0.3563999E+00 -0.1363015E+01 -0.7352149E-01  0.3487341E+00
  0.1464780E+02 -0.4443350E+01 -0.2568960E-01  0.3573999E+00 -0.1357949E+01 -0.7549851E-01  0.3493346E+00
  0.1501280E+02 -0.2986230E+01 -0.2568960E-01  0.3596772E+00 -0.1355097E+01 -0.7698175E-01  0.3513424E+00
  0.1523320E+02 -0.1500330E+01 -0.2568960E-01  0.3614025E+00 -0.1353898E+01 -0.7777431E-01  0.3529348E+00
  0.1530690E+02  0.0000000E+00 -0.1027320E+00  0.3613513E+00 -0.1354285E+01 -0.7762668E-01  0.3529148E+00
  0.1523320E+02  0.1500340E+01 -0.1027320E+00  0.3612600E+00 -0.1356167E+01 -0.7694297E-01  0.3529710E+00
  0.1501280E+02  0.2986230E+01 -0.1027320E+00  0.3603295E+00 -0.1359616E+01 -0.7553012E-01  0.3523245E+00
  0.1464780E+02  0.4443360E+01 -0.1027320E+00  0.3588683E+00 -0.1364817E+01 -0.7339792E-01  0.3512823E+00
  0.1414170E+02  0.5857700E+01 -0.1027320E+00  0.3585564E+00 -0.1372490E+01 -0.7063884E-01  0.3515293E+00
  0.1349950E+02  0.7215620E+01 -0.1027320E+00  0.3597656E+00 -0.1382567E+01 -0.6731926E-01  0.3534110E+00
  0.1272720E+02  0.8504060E+01 -0.1027320E+00  0.3596248E+00 -0.1393970E+01 -0.6326038E-01  0.3540171E+00
  0.1183240E+02  0.9710600E+01 -0.1027320E+00  0.3558386E+00 -0.1406042E+01 -0.5836092E-01  0.3510201E+00
  0.1082360E+02  0.1082360E+02 -0.1027320E+00  0.3519671E+00 -0.1420164E+01 -0.5281726E-01  0.3479816E+00
  0.9710590E+01  0.1183240E+02 -0.1027320E+00  0.3486035E+00 -0.1436541E+01 -0.4666128E-01  0.3454666E+00
  0.8504060E+01  0.1272720E+02 -0.1027320E+00  0.3411293E+00 -0.1454102E+01 -0.3971768E-01  0.3388093E+00
  0.7215620E+01  0.1349950E+02 -0.1027320E+00  0.3343924E+00 -0.1473960E+01 -0.3233075E-01  0.3328258E+00
  0.5857700E+01  0.1414170E+02 -0.1027320E+00  0.3247263E+00 -0.1495745E+01 -0.2434817E-01  0.3238122E+00
  0.4443360E+01  0.1464780E+02 -0.1027320E+00  0.3082310E+00 -0.1520596E+01 -0.1546671E-01  0.3078427E+00
  0.2986230E+01  0.1501280E+02 -0.1027320E+00  0.2775970E+00 -0.1549912E+01 -0.5796939E-02  0.2775365E+00
  0.1500340E+01  0.1523320E+02 -0.1027320E+00  0.1544852E+00 -0.1611246E+01  0.6247140E-02  0.1543588E+00
 -0.6690860E-06  0.1530690E+02 -0.1027320E+00  0.7072178E-01 -0.1829522E+01  0.1809407E-01  0.6836793E-01
 -0.1500340E+01  0.1523320E+02 -0.1027320E+00  0.3831672E-01  0.2558933E+01  0.3199454E-01 -0.2108364E-01
 -0.2986230E+01  0.1501280E+02 -0.1027320E+00  0.1685524E+00  0.1891672E+01  0.5316106E-01 -0.1599494E+00
 -0.4443360E+01  0.1464780E+02 -0.1027320E+00  0.2063325E+00  0.1881846E+01  0.6314966E-01 -0.1964312E+00
 -0.5857700E+01  0.1414170E+02 -0.1027320E+00  0.2268623E+00  0.1887789E+01  0.7071531E-01 -0.2155594E+00
 -0.7215620E+01  0.1349950E+02 -0.1027320E+00  0.2397404E+00  0.1899076E+01  0.7729594E-01 -0.2269379E+00
 -0.8504060E+01  0.1272720E+02 -0.1027320E+00  0.2489870E+00  0.1911530E+01  0.8320614E-01 -0.2346727E+00
 -0.9710590E+01  0.1183240E+02 -0.1027320E+00  0.2585631E+00  0.1921194E+01  0.8875731E-01 -0.2428519E+00
 -0.1082360E+02  0.1082360E+02 -0.1027320E+00  0.2637553E+00  0.1933434E+01  0.9356497E-01 -0.2466018E+00
 -0.1183240E+02  0.9710590E+01 -0.1027320E+00  0.2693818E+00  0.1943606E+01  0.9811775E-01 -0.2508774E+00
 -0.1272720E+02  0.8504060E+01 -0.1027320E+00  0.2747539E+00  0.1952376E+01  0.1023147E+00 -0.2549930E+00
 -0.1349950E+02  0.7215620E+01 -0.1027320E+00  0.2763179E+00  0.1963475E+01  0.1057371E+00 -0.2552866E+00
 -0.1414170E+02  0.5857690E+01 -0.1027320E+00  0.2763970E+00  0.1974264E+01  0.1085161E+00 -0.2542038E+00
 -0.1464780E+02  0.4443360E+01 -0.1027320E+00  0.2778678E+00  0.1981395E+01  0.1109132E+00 -0.2547720E+00
 -0.1501280E+02  0.2986230E+01 -0.1027320E+00  0.2804636E+00  0.1985248E+01  0.1129393E+00 -0.2567188E+00
 -0.1523320E+02  0.1500340E+01 -0.1027320E+00  0.2824803E+00  0.1987907E+01  0.1144385E+00 -0.2582614E+00
 -0.1530690E+02 -0.1338170E-05 -0.1027320E+00  0.2836173E+00  0.1989747E+01  0.1153762E+00 -0.2590890E+00
 -0.1523320E+02 -0.1500340E+01 -0.1027320E+00  0.2838088E+00  0.1990852E+01  0.1157406E+00 -0.2591362E+00
 -0.1501280E+02 -0.2986230E+01 -0.1027320E+00  0.2831382E+00  0.1991115E+01  0.1155349E+00 -0.2584936E+00
 -0.1464780E+02 -0.4443360E+01 -0.1027320E+00  0.2819142E+00  0.1990289E+01  0.1148228E+00 -0.2574711E+00
 -0.1414170E+02 -0.5857700E+01 -0.1027320E+00  0.2817747E+00  0.1986755E+01  0.1138557E+00 -0.2577477E+00
 -0.1349950E+02 -0.7215620E+01 -0.1027320E+00  0.2830566E+00  0.1980111E+01  0.1126511E+00 -0.2596744E+00
 -0.1272720E+02 -0.8504060E+01 -0.1027320E+00  0.2829369E+00  0.1973146E+01  0.1107929E+00 -0.2603425E+00
 -0.1183240E+02 -0.9710600E+01 -0.1027320E+00  0.2791450E+00  0.1967831E+01  0.1079413E+00 -0.2574307E+00
 -0.1082360E+02 -0.1082360E+02 -0.1027320E+00  0.2752140E+00  0.1961271E+01  0.1047540E+00 -0.2544982E+00
 -0.9710600E+01 -0.1183240E+02 -0.1027320E+00  0.2717414E+00  0.1953267E+01  0.1014175E+00 -0.2521068E+00
 -0.8504050E+01 -0.1272720E+02 -0.1027320E+00  0.2641178E+00  0.1947402E+01  0.9713347E-01 -0.2456080E+00
 -0.7215620E+01 -0.1349950E+02 -0.1027320E+00  0.2571197E+00  0.1939775E+01  0.9273346E-01 -0.2398145E+00
 -0.5857690E+01 -0.1414170E+02 -0.1027320E+00  0.2470870E+00  0.1933064E+01  0.8756664E-01 -0.2310499E+00
 -0.4443360E+01 -0.1464780E+02 -0.1027320E+00  0.2301879E+00  0.1931117E+01  0.8115828E-01 -0.2154061E+00
 -0.2986230E+01 -0.1501280E+02 -0.1027320E+00  0.1989773E+00  0.1938859E+01  0.7159370E-01 -0.1856511E+00
 -0.1500340E+01 -0.1523320E+02 -0.1027320E+00  0.7633862E-01  0.2156935E+01  0.4222661E-01 -0.6359637E-01
  0.1825330E-06 -0.1530690E+02 -0.1027320E+00  0.3134303E-01 -0.2357553E+01  0.2219295E-01  0.2213275E-01
  0.1500340E+01 -0.1523320E+02 -0.1027320E+00  0.1118739E+00 -0.1607069E+01  0.4057130E-02  0.1118003E+00
  0.2986230E+01 -0.1501280E+02 -0.1027320E+00  0.2522998E+00 -0.1503962E+01 -0.1684967E-01  0.2517366E+00
  0.4443360E+01 -0.1464780E+02 -0.1027320E+00  0.2899576E+00 -0.1479324E+01 -0.2648618E-01  0.2887453E+00
  0.5857700E+01 -0.1414170E+02 -0.1027320E+00  0.3101116E+00 -0.1459139E+01 -0.3455431E-01  0.3081804E+00
  0.7215620E+01 -0.1349950E+02 -0.1027320E+00  0.3224742E+00 -0.1441775E+01 -0.4149085E-01  0.3197939E+00
  0.8504060E+01 -0.1272720E+02 -0.1027320E+00  0.3311738E+00 -0.1426043E+01 -0.4777131E-01  0.3277102E+00
  0.9710600E+01 -0.1183240E+02 -0.1027320E+00  0.3403384E+00 -0.1411788E+01 -0.5388889E-01  0.3360449E+00
  0.1082360E+02 -0.1082360E+02 -0.1027320E+00  0.3450129E+00 -0.1398795E+01 -0.5905053E-01  0.3399220E+00
  0.1183240E+02 -0.9710590E+01 -0.1027320E+00  0.3501630E+00 -0.1387710E+01 -0.6375240E-01  0.3443106E+00
  0.1272720E+02 -0.8504060E+01 -0.1027320E+00  0.3550679E+00 -0.1378467E+01 -0.6786972E-01  0.3485211E+00
  0.1349950E+02 -0.7215620E+01 -0.1027320E+00  0.3560299E+00 -0.1370146E+01 -0.7095920E-01  0.3488869E+00
  0.1414170E+02 -0.5857700E+01 -0.1027320E+00  0.3555088E+00 -0.1363050E+01 -0.7332569E-01  0.3478647E+00
  0.1464780E+02 -0.4443350E+01 -0.1027320E+00  0.3565304E+00 -0.1357991E+01 -0.7530011E-01  0.3484879E+00
  0.1501280E+02 -0.2986230E+01 -0.1027320E+00  0.3587956E+00 -0.1355137E+01 -0.7677907E-01  0.3504844E+00
  0.1523320E+02 -0.1500330E+01 -0.1027320E+00  0.3605076E+00 -0.1353935E+01 -0.7756868E-01  0.3520637E+00
  0.1530690E+02  0.0000000E+00 -0.2310450E+00  0.3598743E+00 -0.1354356E+01 -0.7728450E-01  0.3514777E+00
  0.1523320E+02  0.1500340E+01 -0.2310450E+00  0.3597876E+00 -0.1356242E+01 -0.7660318E-01  0.3515381E+00
  0.1501280E+02  0.2986230E+01 -0.2310450E+00  0.3588732E+00 -0.1359696E+01 -0.7519677E-01  0.3509065E+00
  0.1464780E+02  0.4443360E+01 -0.2310450E+00  0.3574291E+00 -0.1364905E+01 -0.7307260E-01  0.3498799E+00
  0.1414170E+02  0.5857700E+01 -0.2310450E+00  0.3570766E+00 -0.1372562E+01 -0.7032211E-01  0.3500836E+00
  0.1349950E+02  0.7215620E+01 -0.2310450E+00  0.3581789E+00 -0.1382599E+01 -0.6701109E-01  0.3518546E+00
  0.1272720E+02  0.8504060E+01 -0.2310450E+00  0.3579874E+00 -0.1393987E+01 -0.6296612E-01  0.3524064E+00
  0.1183240E+02  0.9710600E+01 -0.2310450E+00  0.3543003E+00 -0.1406089E+01 -0.5809234E-01  0.3495054E+00
  0.1082360E+02  0.1082360E+02 -0.2310450E+00  0.3504738E+00 -0.1420217E+01 -0.5257493E-01  0.3465079E+00
  0.9710590E+01  0.1183240E+02 -0.2310450E+00  0.3470626E+00 -0.1436572E+01 -0.4644437E-01  0.3439409E+00
  0.8504060E+01  0.1272720E+02 -0.2310450E+00  0.3397466E+00 -0.1454153E+01 -0.3953949E-01  0.3374380E+00
  0.7215620E+01  0.1349950E+02 -0.2310450E+00  0.3329755E+00 -0.1473997E+01 -0.3218137E-01  0.3314167E+00
  0.5857700E+01  0.1414170E+02 -0.2310450E+00  0.3233609E+00 -0.1495792E+01 -0.2423076E-01  0.3224518E+00
  0.4443360E+01  0.1464780E+02 -0.2310450E+00  0.3070291E+00 -0.1520628E+01 -0.1539656E-01  0.3066428E+00
  0.2986230E+01  0.1501280E+02 -0.2310450E+00  0.2764268E+00 -0.1549949E+01 -0.5762270E-02  0.2763667E+00
  0.1500340E+01  0.1523320E+02 -0.2310450E+00  0.1540495E+00 -0.1611159E+01  0.6216132E-02  0.1539240E+00
 -0.6690860E-06  0.1530690E+02 -0.2310450E+00  0.7040840E-01 -0.1829705E+01  0.1802635E-01  0.6806169E-01
 -0.1500340E+01  0.1523320E+02 -0.2310450E+00  0.3832285E-01  0.2553678E+01  0.3188841E-01 -0.2125490E-01
 -0.2986230E+01  0.1501280E+02 -0.2310450E+00  0.1678658E+00  0.1891636E+01  0.5293877E-01 -0.1592998E+00
 -0.4443360E+01  0.1464780E+02 -0.2310450E+00  0.2055825E+00  0.1881683E+01  0.6288826E-01 -0.1957275E+00
 -0.5857700E+01  0.1414170E+02 -0.2310450E+00  0.2259447E+00  0.1887731E+01  0.7041683E-01 -0.2146916E+00
 -0.7215620E+01  0.1349950E+02 -0.2310450E+00  0.2387509E+00  0.1899024E+01  0.7696508E-01 -0.2260053E+00
 -0.8504060E+01  0.1272720E+02 -0.2310450E+00  0.2480222E+00  0.1911389E+01  0.8285078E-01 -0.2337750E+00
 -0.9710590E+01  0.1183240E+02 -0.2310450E+00  0.2574300E+00  0.1921185E+01  0.8836618E-01 -0.2417884E+00
 -0.1082360E+02  0.1082360E+02 -0.2310450E+00  0.2626665E+00  0.1933361E+01  0.9316078E-01 -0.2455906E+00
 -0.1183240E+02  0.9710590E+01 -0.2310450E+00  0.2682366E+00  0.1943560E+01  0.9768939E-01 -0.2498153E+00
 -0.1272720E+02  0.8504060E+01 -0.2310450E+00  0.2735003E+00  0.1952400E+01  0.1018541E+00 -0.2538270E+00
 -0.1349950E+02  0.7215620E+01 -0.2310450E+00  0.2751079E+00  0.1963439E+01  0.1052650E+00 -0.2541725E+00
 -0.1414170E+02  0.5857690E+01 -0.2310450E+00  0.2752891E+00  0.1974109E+01  0.1080419E+00 -0.2532016E+00
 -0.1464780E+02  0.4443360E+01 -0.2310450E+00  0.2767931E+00  0.1981185E+01  0.1104309E+00 -0.2538098E+00
 -0.1501280E+02  0.2986230E+01 -0.2310450E+00  0.2793669E+00  0.1985056E+01  0.1124486E+00 -0.2557365E+00
 -0.1523320E+02  0.1500340E+01 -0.2310450E+00  0.2813625E+00  0.1987730E+01  0.1139403E+00 -0.2572596E+00
 -0.1530690E+02 -0.1338170E-05 -0.2310450E+00  0.2824891E+00  0.1989578E+01  0.1148737E+00 -0.2580778E+00
 -0.1523320E+02 -0.1500340E+01 -0.2310450E+00  0.2826851E+00  0.1990684E+01  0.1152387E+00 -0.2581296E+00
 -0.1501280E+02 -0.2986230E+01 -0.2310450E+00  0.2820306E+00  0.1990947E+01  0.1150398E+00 -0.2575017E+00
 -0.1464780E+02 -0.4443360E+01 -0.2310450E+00  0.2808213E+00  0.1990108E+01  0.1143314E+00 -0.2564935E+00
 -0.1414170E+02 -0.5857700E+01 -0.2310450E+00  0.2806432E+00  0.1986617E+01  0.1133631E+00 -0.2567283E+00
 -0.1349950E+02 -0.7215620E+01 -0.2310450E+00  0.2818177E+00  0.1980062E+01  0.1121454E+00 -0.2585433E+00
 -0.1272720E+02 -0.8504060E+01 -0.2310450E+00  0.2816507E+00  0.1973159E+01  0.1102926E+00 -0.2591576E+00
 -0.1183240E+02 -0.9710600E+01 -0.2310450E+00  0.2779575E+00  0.1967778E+01  0.1074685E+00 -0.2563413E+00
 -0.1082360E+02 -0.1082360E+02 -0.2310450E+00  0.2740728E+00  0.1961207E+01  0.1043034E+00 -0.2534496E+00
 -0.9710600E+01 -0.1183240E+02 -0.2310450E+00  0.2705513E+00  0.1953243E+01  0.1009675E+00 -0.2510051E+00
 -0.8504050E+01 -0.1272720E+02 -0.2310450E+00  0.2630880E+00  0.1947293E+01  0.9672815E-01 -0.2446609E+00
 -0.7215620E+01 -0.1349950E+02 -0.2310450E+00  0.2560579E+00  0.1939719E+01  0.9233718E-01 -0.2388294E+00
 -0.5857690E+01 -0.1414170E+02 -0.2310450E+00  0.2460809E+00  0.1933021E+01  0.8720010E-01 -0.2301130E+00
 -0.4443360E+01 -0.1464780E+02 -0.2310450E+00  0.2293439E+00  0.1930981E+01  0.8083162E-01 -0.2146273E+00
 -0.2986230E+01 -0.1501280E+02 -0.2310450E+00  0.1981698E+00  0.1938813E+01  0.7129467E-01 -0.1849009E+00
 -0.1500340E+01 -0.1523320E+02 -0.2310450E+00  0.7624703E-01  0.2155646E+01  0.4209401E-01 -0.6357439E-01
  0.1825330E-06 -0.1530690E+02 -0.2310450E+00  0.3120458E-01 -0.2357989E+01  0.2210452E-01  0.2202535E-01
  0.1500340E+01 -0.1523320E+02 -0.2310450E+00  0.1116304E+00 -0.1606793E+01  0.4017500E-02  0.1115581E+00
  0.2986230E+01 -0.1501280E+02 -0.2310450E+00  0.2512292E+00 -0.1503992E+01 -0.1677068E-01  0.2506689E+00
  0.4443360E+01 -0.1464780E+02 -0.2310450E+00  0.2888280E+00 -0.1479323E+01 -0.2638325E-01  0.2876205E+00
  0.5857700E+01 -0.1414170E+02 -0.2310450E+00  0.3088136E+00 -0.1459180E+01 -0.3439706E-01  0.3068919E+00
  0.7215620E+01 -0.1349950E+02 -0.2310450E+00  0.3211074E+00 -0.1441805E+01 -0.4130543E-01  0.3184397E+00
  0.8504060E+01 -0.1272720E+02 -0.2310450E+00  0.3298367E+00 -0.1426080E+01 -0.4756648E-01  0.3263889E+00
  0.9710600E+01 -0.1183240E+02 -0.2310450E+00  0.3388295E+00 -0.1411826E+01 -0.5363717E-01  0.3345572E+00
  0.1082360E+02 -0.1082360E+02 -0.2310450E+00  0.3435537E+00 -0.1398839E+01 -0.5878572E-01  0.3384869E+00
  0.1183240E+02 -0.9710590E+01 -0.2310450E+00  0.3486495E+00 -0.1387755E+01 -0.6346153E-01  0.3428251E+00
  0.1272720E+02 -0.8504060E+01 -0.2310450E+00  0.3534451E+00 -0.1378493E+01 -0.6755069E-01  0.3469299E+00
  0.1349950E+02 -0.7215620E+01 -0.2310450E+00  0.3544567E+00 -0.1370177E+01 -0.7063497E-01  0.3473474E+00
  0.1414170E+02 -0.5857700E+01 -0.2310450E+00  0.3540465E+00 -0.1363104E+01 -0.7300527E-01  0.3464378E+00
  0.1464780E+02 -0.4443350E+01 -0.2310450E+00  0.3551060E+00 -0.1358059E+01 -0.7497564E-01  0.3471007E+00
  0.1501280E+02 -0.2986230E+01 -0.2310450E+00  0.3573490E+00 -0.1355206E+01 -0.7644538E-01  0.3490765E+00
  0.1523320E+02 -0.1500330E+01 -0.2310450E+00  0.3590396E+00 -0.1354005E+01 -0.7722855E-01  0.3506354E+00
  0.1530690E+02  0.0000000E+00 -0.4105000E+00  0.3578176E+00 -0.1354452E+01 -0.7680935E-01  0.3494764E+00
  0.1523320E+02  0.1500340E+01 -0.4105000E+00  0.3577381E+00 -0.1356343E+01 -0.7613156E-01  0.3495434E+00
  0.1501280E+02  0.2986230E+01 -0.4105000E+00  0.3568458E+00 -0.1359804E+01 -0.7473431E-01  0.3489322E+00
  0.1464780E+02  0.4443360E+01 -0.4105000E+00  0.3554244E+00 -0.1365013E+01 -0.7262544E-01  0.3479254E+00
  0.1414170E+02  0.5857700E+01 -0.4105000E+00  0.3550192E+00 -0.1372645E+01 -0.6988792E-01  0.3480723E+00
  0.1349950E+02  0.7215620E+01 -0.4105000E+00  0.3559736E+00 -0.1382632E+01 -0.6658694E-01  0.3496904E+00
  0.1272720E+02  0.8504060E+01 -0.4105000E+00  0.3557152E+00 -0.1394004E+01 -0.6256067E-01  0.3501706E+00
  0.1183240E+02  0.9710600E+01 -0.4105000E+00  0.3521650E+00 -0.1406143E+01 -0.5772362E-01  0.3474021E+00
  0.1082360E+02  0.1082360E+02 -0.4105000E+00  0.3484059E+00 -0.1420279E+01 -0.5224327E-01  0.3444667E+00
  0.9710590E+01  0.1183240E+02 -0.4105000E+00  0.3449301E+00 -0.1436596E+01 -0.4615089E-01  0.3418287E+00
  0.8504060E+01  0.1272720E+02 -0.4105000E+00  0.3378442E+00 -0.1454202E+01 -0.3930145E-01  0.3355504E+00
  0.7215620E+01  0.1349950E+02 -0.4105000E+00  0.3310156E+00 -0.1474016E+01 -0.3198584E-01  0.3294666E+00
  0.5857700E+01  0.1414170E+02 -0.4105000E+00  0.3214880E+00 -0.1495811E+01 -0.2408415E-01  0.3205846E+00
  0.4443360E+01  0.1464780E+02 -0.4105000E+00  0.3053302E+00 -0.1520612E+01 -0.1531641E-01  0.3049458E+00
  0.2986230E+01  0.1501280E+02 -0.4105000E+00  0.2747486E+00 -0.1549935E+01 -0.5731106E-02  0.2746888E+00
  0.1500340E+01  0.1523320E+02 -0.4105000E+00  0.1532979E+00 -0.1611023E+01  0.6164947E-02  0.1531739E+00
 -0.6690860E-06  0.1530690E+02 -0.4105000E+00  0.6996326E-01 -0.1829716E+01  0.1791312E-01  0.6763119E-01
 -0.1500340E+01  0.1523320E+02 -0.4105000E+00  0.3822723E-01  0.2549008E+01  0.3170948E-01 -0.2135018E-01
 -0.2986230E+01  0.1501280E+02 -0.4105000E+00  0.1668681E+00  0.1891560E+01  0.5261206E-01 -0.1583570E+00
 -0.4443360E+01  0.1464780E+02 -0.4105000E+00  0.2045042E+00  0.1881423E+01  0.6250782E-01 -0.1947171E+00
 -0.5857700E+01  0.1414170E+02 -0.4105000E+00  0.2246868E+00  0.1887571E+01  0.6999064E-01 -0.2135075E+00
 -0.7215620E+01  0.1349950E+02 -0.4105000E+00  0.2373777E+00  0.1898882E+01  0.7649045E-01 -0.2247162E+00
 -0.8504060E+01  0.1272720E+02 -0.4105000E+00  0.2466968E+00  0.1911140E+01  0.8235021E-01 -0.2325462E+00
 -0.9710590E+01  0.1183240E+02 -0.4105000E+00  0.2558645E+00  0.1921136E+01  0.8781692E-01 -0.2403224E+00
 -0.1082360E+02  0.1082360E+02 -0.4105000E+00  0.2611591E+00  0.1933230E+01  0.9259427E-01 -0.2441933E+00