 VARIABLES="X" "Y" "Z" "abs(eta) (m)" "angle(phi) (rad)" "PRE1" "PRE2"
ZONE N=   3200 ,E =    3136 ,F=FEPOINT,ET=QUADRILATERAL
  0.1530690E+02  0.0000000E+00  0.0000000E+00  0.1610697E+00  0.2903332E+01  0.1565195E+00 -0.3801448E-01
  0.1523320E+02  0.1500340E+01  0.0000000E+00  0.1536091E+00  0.2905621E+01  0.1493522E+00 -0.3591192E-01
  0.1501280E+02  0.2986230E+01  0.0000000E+00  0.1457624E+00  0.2907247E+01  0.1417782E+00 -0.3384695E-01
  0.1464780E+02  0.4443360E+01  0.0000000E+00  0.1377618E+00  0.2909482E+01  0.1340674E+00 -0.3168964E-01
  0.1414170E+02  0.5857700E+01  0.0000000E+00  0.1295995E+00  0.2911007E+01  0.1261694E+00 -0.2961968E-01
  0.1349950E+02  0.7215620E+01  0.0000000E+00  0.1209486E+00  0.2907634E+01  0.1176535E+00 -0.2803958E-01
  0.1272720E+02  0.8504060E+01  0.0000000E+00  0.1122289E+00  0.2897646E+01  0.1089061E+00 -0.2710709E-01
  0.1183240E+02  0.9710600E+01  0.0000000E+00  0.1030929E+00  0.2899475E+01  0.1000860E+00 -0.2471745E-01
  0.1082360E+02  0.1082360E+02  0.0000000E+00  0.9388852E-01  0.2928902E+01  0.9177288E-01 -0.1981902E-01
  0.9710590E+01  0.1183240E+02  0.0000000E+00  0.8442602E-01  0.2960986E+01  0.8305281E-01 -0.1516516E-01
  0.8504060E+01  0.1272720E+02  0.0000000E+00  0.7500933E-01  0.3025213E+01  0.7450194E-01 -0.8709827E-02
  0.7215620E+01  0.1349950E+02  0.0000000E+00  0.6660382E-01 -0.3118736E+01  0.6658642E-01  0.1522191E-02
  0.5857700E+01  0.1414170E+02  0.0000000E+00  0.6205644E-01 -0.2909724E+01  0.6039573E-01  0.1426037E-01
  0.4443360E+01  0.1464780E+02  0.0000000E+00  0.6578620E-01 -0.2603087E+01  0.5647587E-01  0.3373870E-01
  0.2986230E+01  0.1501280E+02  0.0000000E+00  0.9441096E-01 -0.2286690E+01  0.6196116E-01  0.7123373E-01
  0.1500340E+01  0.1523320E+02  0.0000000E+00  0.2085989E+00 -0.2086064E+01  0.1027908E+00  0.1815146E+00
 -0.6690860E-06  0.1530690E+02  0.0000000E+00  0.2501384E+00 -0.1979051E+01  0.9930703E-01  0.2295807E+00
 -0.1500340E+01  0.1523320E+02  0.0000000E+00  0.2647602E+00 -0.1835863E+01  0.6936015E-01  0.2555135E+00
 -0.2986230E+01  0.1501280E+02  0.0000000E+00  0.2635996E+00 -0.1520561E+01 -0.1323637E-01  0.2632671E+00
 -0.4443360E+01  0.1464780E+02  0.0000000E+00  0.2657209E+00 -0.1349652E+01 -0.5828497E-01  0.2592498E+00
 -0.5857700E+01  0.1414170E+02  0.0000000E+00  0.2707527E+00 -0.1234438E+01 -0.8936244E-01  0.2555805E+00
 -0.7215620E+01  0.1349950E+02  0.0000000E+00  0.2756706E+00 -0.1139944E+01 -0.1151326E+00  0.2504770E+00
 -0.8504060E+01  0.1272720E+02  0.0000000E+00  0.2821876E+00 -0.1064933E+01 -0.1367375E+00  0.2468454E+00
 -0.9710590E+01  0.1183240E+02  0.0000000E+00  0.2872942E+00 -0.1000188E+01 -0.1551803E+00  0.2417789E+00
 -0.1082360E+02  0.1082360E+02  0.0000000E+00  0.2917185E+00 -0.9433922E+00 -0.1712520E+00  0.2361619E+00
 -0.1183240E+02  0.9710590E+01  0.0000000E+00  0.2963192E+00 -0.8930771E+00 -0.1857974E+00  0.2308341E+00
 -0.1272720E+02  0.8504060E+01  0.0000000E+00  0.2993724E+00 -0.8497358E+00 -0.1976402E+00  0.2248604E+00
 -0.1349950E+02  0.7215620E+01  0.0000000E+00  0.3012154E+00 -0.8128681E+00 -0.2070609E+00  0.2187612E+00
 -0.1414170E+02  0.5857690E+01  0.0000000E+00  0.3031061E+00 -0.7830765E+00 -0.2148254E+00  0.2138302E+00
 -0.1464780E+02  0.4443360E+01  0.0000000E+00  0.3045379E+00 -0.7579711E+00 -0.2211652E+00  0.2093544E+00
 -0.1501280E+02  0.2986230E+01  0.0000000E+00  0.3051163E+00 -0.7381614E+00 -0.2256967E+00  0.2053216E+00
 -0.1523320E+02  0.1500340E+01  0.0000000E+00  0.3045631E+00 -0.7233182E+00 -0.2283047E+00  0.2015829E+00
 -0.1530690E+02 -0.1338170E-05  0.0000000E+00  0.3031984E+00 -0.7133163E+00 -0.2292774E+00  0.1983964E+00
 -0.1523320E+02 -0.1500340E+01  0.0000000E+00  0.3008428E+00 -0.7077859E+00 -0.2285813E+00  0.1955939E+00
 -0.1501280E+02 -0.2986230E+01  0.0000000E+00  0.2974065E+00 -0.7065106E+00 -0.2262168E+00  0.1930714E+00
 -0.1464780E+02 -0.4443360E+01  0.0000000E+00  0.2924782E+00 -0.7093546E+00 -0.2219273E+00  0.1905040E+00
 -0.1414170E+02 -0.5857700E+01  0.0000000E+00  0.2864605E+00 -0.7164131E+00 -0.2160388E+00  0.1881140E+00
 -0.1349950E+02 -0.7215620E+01  0.0000000E+00  0.2803244E+00 -0.7279238E+00 -0.2092783E+00  0.1865057E+00
 -0.1272720E+02 -0.8504060E+01  0.0000000E+00  0.2742594E+00 -0.7443748E+00 -0.2017210E+00  0.1858141E+00
 -0.1183240E+02 -0.9710600E+01  0.0000000E+00  0.2656208E+00 -0.7645096E+00 -0.1917044E+00  0.1838582E+00
 -0.1082360E+02 -0.1082360E+02  0.0000000E+00  0.2527453E+00 -0.7890232E+00 -0.1780688E+00  0.1793646E+00
 -0.9710600E+01 -0.1183240E+02  0.0000000E+00  0.2399497E+00 -0.8182197E+00 -0.1640109E+00  0.1751465E+00
 -0.8504050E+01 -0.1272720E+02  0.0000000E+00  0.2243861E+00 -0.8533749E+00 -0.1475212E+00  0.1690757E+00
 -0.7215620E+01 -0.1349950E+02  0.0000000E+00  0.2034509E+00 -0.8980427E+00 -0.1267788E+00  0.1591208E+00
 -0.5857690E+01 -0.1414170E+02  0.0000000E+00  0.1791150E+00 -0.9567310E+00 -0.1032051E+00  0.1463929E+00
 -0.4443360E+01 -0.1464780E+02  0.0000000E+00  0.1458623E+00 -0.1050236E+01 -0.7254706E-01  0.1265415E+00
 -0.2986230E+01 -0.1501280E+02  0.0000000E+00  0.9049312E-01 -0.1321972E+01 -0.2228526E-01  0.8770617E-01
 -0.1500340E+01 -0.1523320E+02  0.0000000E+00  0.1173607E+00  0.2921131E+01  0.1145201E+00 -0.2566448E-01
  0.1825330E-06 -0.1530690E+02  0.0000000E+00  0.1941914E+00  0.2754057E+01  0.1797908E+00 -0.7338640E-01
  0.1500340E+01 -0.1523320E+02  0.0000000E+00  0.2366396E+00  0.2718768E+01  0.2157996E+00 -0.9710224E-01
  0.2986230E+01 -0.1501280E+02  0.0000000E+00  0.2387165E+00  0.2714755E+01  0.2172987E+00 -0.9882719E-01
  0.4443360E+01 -0.1464780E+02  0.0000000E+00  0.2291836E+00  0.2727967E+01  0.2098565E+00 -0.9211615E-01
  0.5857700E+01 -0.1414170E+02  0.0000000E+00  0.2243135E+00  0.2743058E+01  0.2067342E+00 -0.8704904E-01
  0.7215620E+01 -0.1349950E+02  0.0000000E+00  0.2190417E+00  0.2761900E+01  0.2034413E+00 -0.8118452E-01
  0.8504060E+01 -0.1272720E+02  0.0000000E+00  0.2167313E+00  0.2776645E+01  0.2024579E+00 -0.7735156E-01
  0.9710600E+01 -0.1183240E+02  0.0000000E+00  0.2129432E+00  0.2794247E+01  0.2002262E+00 -0.7248646E-01
  0.1082360E+02 -0.1082360E+02  0.0000000E+00  0.2085029E+00  0.2812478E+01  0.1973124E+00 -0.6738925E-01
  0.1183240E+02 -0.9710590E+01  0.0000000E+00  0.2041921E+00  0.2828891E+01  0.1942900E+00 -0.6281564E-01
  0.1272720E+02 -0.8504060E+01  0.0000000E+00  0.1986892E+00  0.2846385E+01  0.1900942E+00 -0.5780624E-01
  0.1349950E+02 -0.7215620E+01  0.0000000E+00  0.1924579E+00  0.2863613E+01  0.1850698E+00 -0.5281308E-01
  0.1414170E+02 -0.5857700E+01  0.0000000E+00  0.1866942E+00  0.2875816E+01  0.1801391E+00 -0.4903691E-01
  0.1464780E+02 -0.4443350E+01  0.0000000E+00  0.1806444E+00  0.2886034E+01  0.1747774E+00 -0.4566437E-01
  0.1501280E+02 -0.2986230E+01  0.0000000E+00  0.1744549E+00  0.2893818E+01  0.1691271E+00 -0.4278454E-01
  0.1523320E+02 -0.1500330E+01  0.0000000E+00  0.1680247E+00  0.2899703E+01  0.1631330E+00 -0.4024825E-01
  0.1530690E+02  0.0000000E+00 -0.2568960E-01  0.1608258E+00  0.2903245E+01  0.1562792E+00 -0.3797060E-01
  0.1523320E+02  0.1500340E+01 -0.2568960E-01  0.1533754E+00  0.2905528E+01  0.1491217E+00 -0.3587125E-01
  0.1501280E+02  0.2986230E+01 -0.2568960E-01  0.1455412E+00  0.2907140E+01  0.1415595E+00 -0.3381069E-01
  0.1464780E+02  0.4443360E+01 -0.2568960E-01  0.1375529E+00  0.2909352E+01  0.1338600E+00 -0.3165893E-01
  0.1414170E+02  0.5857700E+01 -0.2568960E-01  0.1294029E+00  0.2910866E+01  0.1259738E+00 -0.2959246E-01
  0.1349950E+02  0.7215620E+01 -0.2568960E-01  0.1207648E+00  0.2907519E+01  0.1174715E+00 -0.2801045E-01
  0.1272720E+02  0.8504060E+01 -0.2568960E-01  0.1120573E+00  0.2897628E+01  0.1087391E+00 -0.2706769E-01
  0.1183240E+02  0.9710600E+01 -0.2568960E-01  0.1029361E+00  0.2899478E+01  0.9993380E-01 -0.2467954E-01
  0.1082360E+02  0.1082360E+02 -0.2568960E-01  0.9374446E-01  0.2928774E+01  0.9162953E-01 -0.1980030E-01
  0.9710590E+01  0.1183240E+02 -0.2568960E-01  0.8429766E-01  0.2960909E+01  0.8292539E-01 -0.1514844E-01
  0.8504060E+01  0.1272720E+02 -0.2568960E-01  0.7489820E-01  0.3025172E+01  0.7439119E-01 -0.8700054E-02
  0.7215620E+01  0.1349950E+02 -0.2568960E-01  0.6650534E-01 -0.3119081E+01  0.6648849E-01  0.1496998E-02
  0.5857700E+01  0.1414170E+02 -0.2568960E-01  0.6195584E-01 -0.2910089E+01  0.6030301E-01  0.1421525E-01
  0.4443360E+01  0.1464780E+02 -0.2568960E-01  0.6567094E-01 -0.2603534E+01  0.5639197E-01  0.3365439E-01
  0.2986230E+01  0.1501280E+02 -0.2568960E-01  0.9426158E-01 -0.2286906E+01  0.6187846E-01  0.7110767E-01
  0.1500340E+01  0.1523320E+02 -0.2568960E-01  0.2082970E+00 -0.2086236E+01  0.1026732E+00  0.1812342E+00
 -0.6690860E-06  0.1530690E+02 -0.2568960E-01  0.2497662E+00 -0.1979148E+01  0.9918137E-01  0.2292296E+00
 -0.1500340E+01  0.1523320E+02 -0.2568960E-01  0.2643938E+00 -0.1836001E+01  0.6929930E-01  0.2551503E+00
 -0.2986230E+01  0.1501280E+02 -0.2568960E-01  0.2631935E+00 -0.1520630E+01 -0.1319783E-01  0.2628624E+00
 -0.4443360E+01  0.1464780E+02 -0.2568960E-01  0.2653118E+00 -0.1349683E+01 -0.5818713E-01  0.2588525E+00
 -0.5857700E+01  0.1414170E+02 -0.2568960E-01  0.2703258E+00 -0.1234457E+01 -0.8921675E-01  0.2551792E+00
 -0.7215620E+01  0.1349950E+02 -0.2568960E-01  0.2752418E+00 -0.1139999E+01 -0.1149398E+00  0.2500938E+00
 -0.8504060E+01  0.1272720E+02 -0.2568960E-01  0.2817325E+00 -0.1064962E+01 -0.1365098E+00  0.2464513E+00
 -0.9710590E+01  0.1183240E+02 -0.2568960E-01  0.2868311E+00 -0.1000214E+01 -0.1549239E+00  0.2413931E+00
 -0.1082360E+02  0.1082360E+02 -0.2568960E-01  0.2912513E+00 -0.9434134E+00 -0.1709727E+00  0.2357873E+00
 -0.1183240E+02  0.9710590E+01 -0.2568960E-01  0.2958395E+00 -0.8931025E+00 -0.1854908E+00  0.2304651E+00
 -0.1272720E+02  0.8504060E+01 -0.2568960E-01  0.2988900E+00 -0.8497646E+00 -0.1973152E+00  0.2245038E+00
 -0.1349950E+02  0.7215620E+01 -0.2568960E-01  0.3007381E+00 -0.8129026E+00 -0.2067253E+00  0.2184217E+00
 -0.1414170E+02  0.5857690E+01 -0.2568960E-01  0.3026290E+00 -0.7831120E+00 -0.2144797E+00  0.2135012E+00
 -0.1464780E+02  0.4443360E+01 -0.2568960E-01  0.3040600E+00 -0.7580068E+00 -0.2208107E+00  0.2090337E+00
 -0.1501280E+02  0.2986230E+01 -0.2568960E-01  0.3046375E+00 -0.7381995E+00 -0.2253347E+00  0.2050080E+00
 -0.1523320E+02  0.1500340E+01 -0.2568960E-01  0.3040867E+00 -0.7233527E+00 -0.2279406E+00  0.2012755E+00
 -0.1530690E+02 -0.1338170E-05 -0.2568960E-01  0.3027245E+00 -0.7133493E+00 -0.2289125E+00  0.1980939E+00
 -0.1523320E+02 -0.1500340E+01 -0.2568960E-01  0.3003730E+00 -0.7078162E+00 -0.2282185E+00  0.1952953E+00
 -0.1501280E+02 -0.2986230E+01 -0.2568960E-01  0.2969430E+00 -0.7065440E+00 -0.2258578E+00  0.1927781E+00
 -0.1464780E+02 -0.4443360E+01 -0.2568960E-01  0.2920266E+00 -0.7093853E+00 -0.2215789E+00  0.1902167E+00
 -0.1414170E+02 -0.5857700E+01 -0.2568960E-01  0.2860201E+00 -0.7164415E+00 -0.2157013E+00  0.1878309E+00
 -0.1349950E+02 -0.7215620E+01 -0.2568960E-01  0.2798872E+00 -0.7279497E+00 -0.2089470E+00  0.1862203E+00
 -0.1272720E+02 -0.8504060E+01 -0.2568960E-01  0.2738165E+00 -0.7443950E+00 -0.2013915E+00  0.1855181E+00
 -0.1183240E+02 -0.9710600E+01 -0.2568960E-01  0.2651890E+00 -0.7645319E+00 -0.1913886E+00  0.1835636E+00
 -0.1082360E+02 -0.1082360E+02 -0.2568960E-01  0.2523503E+00 -0.7890443E+00 -0.1777868E+00  0.1790881E+00
 -0.9710600E+01 -0.1183240E+02 -0.2568960E-01  0.2395671E+00 -0.8182403E+00 -0.1637457E+00  0.1748706E+00
 -0.8504050E+01 -0.1272720E+02 -0.2568960E-01  0.2240234E+00 -0.8534017E+00 -0.1472783E+00  0.1688063E+00
 -0.7215620E+01 -0.1349950E+02 -0.2568960E-01  0.2031482E+00 -0.8980557E+00 -0.1265881E+00  0.1588856E+00
 -0.5857690E+01 -0.1414170E+02 -0.2568960E-01  0.1788518E+00 -0.9567329E+00 -0.1030532E+00  0.1461780E+00
 -0.4443360E+01 -0.1464780E+02 -0.2568960E-01  0.1456635E+00 -0.1050187E+01 -0.7245430E-01  0.1263655E+00
 -0.2986230E+01 -0.1501280E+02 -0.2568960E-01  0.9035618E-01 -0.1321980E+01 -0.2225083E-01  0.8757363E-01
 -0.1500340E+01 -0.1523320E+02 -0.2568960E-01  0.1172023E+00  0.2921036E+01  0.1143632E+00 -0.2564063E-01
  0.1825330E-06 -0.1530690E+02 -0.2568960E-01  0.1939209E+00  0.2754021E+01  0.1795377E+00 -0.7329071E-01
  0.1500340E+01 -0.1523320E+02 -0.2568960E-01  0.2363486E+00  0.2718692E+01  0.2155268E+00 -0.9699930E-01
  0.2986230E+01 -0.1501280E+02 -0.2568960E-01  0.2383722E+00  0.2714730E+01  0.2169829E+00 -0.9869018E-01
  0.4443360E+01 -0.1464780E+02 -0.2568960E-01  0.2288512E+00  0.2727936E+01  0.2095492E+00 -0.9198912E-01
  0.5857700E+01 -0.1414170E+02 -0.2568960E-01  0.2239728E+00  0.2743041E+01  0.2064186E+00 -0.8692031E-01
  0.7215620E+01 -0.1349950E+02 -0.2568960E-01  0.2187233E+00  0.2761860E+01  0.2031423E+00 -0.8107473E-01
  0.8504060E+01 -0.1272720E+02 -0.2568960E-01  0.2163940E+00  0.2776642E+01  0.2021426E+00 -0.7723169E-01
  0.9710600E+01 -0.1183240E+02 -0.2568960E-01  0.2126106E+00  0.2794241E+01  0.1999130E+00 -0.7237447E-01
  0.1082360E+02 -0.1082360E+02 -0.2568960E-01  0.2081799E+00  0.2812462E+01  0.1970056E+00 -0.6728803E-01
  0.1183240E+02 -0.9710590E+01 -0.2568960E-01  0.2038703E+00  0.2828885E+01  0.1939835E+00 -0.6271783E-01
  0.1272720E+02 -0.8504060E+01 -0.2568960E-01  0.1983784E+00  0.2846370E+01  0.1897960E+00 -0.5771874E-01
  0.1349950E+02 -0.7215620E+01 -0.2568960E-01  0.1921654E+00  0.2863569E+01  0.1847862E+00 -0.5274079E-01
  0.1414170E+02 -0.5857700E+01 -0.2568960E-01  0.1864122E+00  0.2875757E+01  0.1798642E+00 -0.4897343E-01
  0.1464780E+02 -0.4443350E+01 -0.2568960E-01  0.1803726E+00  0.2885962E+01  0.1745112E+00 -0.4560826E-01
  0.1501280E+02 -0.2986230E+01 -0.2568960E-01  0.1741924E+00  0.2893742E+01  0.1688694E+00 -0.4273297E-01
  0.1523320E+02 -0.1500330E+01 -0.2568960E-01  0.1677697E+00  0.2899621E+01  0.1628822E+00 -0.4020049E-01
  0.1530690E+02  0.0000000E+00 -0.1027320E+00  0.1600973E+00  0.2902924E+01  0.1555591E+00 -0.3784849E-01
  0.1523320E+02  0.1500340E+01 -0.1027320E+00  0.1526822E+00  0.2905182E+01  0.1484354E+00 -0.3576040E-01
  0.1501280E+02  0.2986230E+01 -0.1027320E+00  0.1448852E+00  0.2906766E+01  0.1409088E+00 -0.3371104E-01
  0.1464780E+02  0.4443360E+01 -0.1027320E+00  0.1369320E+00  0.2908917E+01  0.1332421E+00 -0.3157403E-01
  0.1414170E+02  0.5857700E+01 -0.1027320E+00  0.1288160E+00  0.2910390E+01  0.1253884E+00 -0.2951799E-01
  0.1349950E+02  0.7215620E+01 -0.1027320E+00  0.1202181E+00  0.2907136E+01  0.1169290E+00 -0.2792835E-01
  0.1272720E+02  0.8504060E+01 -0.1027320E+00  0.1115443E+00  0.2897535E+01  0.1082388E+00 -0.2695376E-01
  0.1183240E+02  0.9710600E+01 -0.1027320E+00  0.1024661E+00  0.2899454E+01  0.9947688E-01 -0.2456922E-01
  0.1082360E+02  0.1082360E+02 -0.1027320E+00  0.9331683E-01  0.2928364E+01  0.9120345E-01 -0.1974742E-01
  0.9710590E+01  0.1183240E+02 -0.1027320E+00  0.8391587E-01  0.2960666E+01  0.8254615E-01 -0.1509988E-01
  0.8504060E+01  0.1272720E+02 -0.1027320E+00  0.7456470E-01  0.3025031E+01  0.7405873E-01 -0.8671707E-02
  0.7215620E+01  0.1349950E+02 -0.1027320E+00  0.6621566E-01 -0.3119885E+01  0.6620006E-01  0.1437260E-02
  0.5857700E+01  0.1414170E+02 -0.1027320E+00  0.6165571E-01 -0.2911207E+01  0.6002666E-01  0.1407928E-01
  0.4443360E+01  0.1464780E+02 -0.1027320E+00  0.6532278E-01 -0.2604855E+01  0.5613717E-01  0.3340185E-01
  0.2986230E+01  0.1501280E+02 -0.1027320E+00  0.9382197E-01 -0.2287510E+01  0.6163262E-01  0.7073883E-01
  0.1500340E+01  0.1523320E+02 -0.1027320E+00  0.2073698E+00 -0.2086678E+01  0.1022959E+00  0.1803824E+00
 -0.6690860E-06  0.1530690E+02 -0.1027320E+00  0.2487169E+00 -0.1979553E+01  0.9885707E-01  0.2282266E+00
 -0.1500340E+01  0.1523320E+02 -0.1027320E+00  0.2632735E+00 -0.1836334E+01  0.6909034E-01  0.2540462E+00
 -0.2986230E+01  0.1501280E+02 -0.1027320E+00  0.2619834E+00 -0.1520834E+01 -0.1308392E-01  0.2616565E+00
 -0.4443360E+01  0.1464780E+02 -0.1027320E+00  0.2640933E+00 -0.1349775E+01 -0.5789629E-01  0.2576689E+00
 -0.5857700E+01  0.1414170E+02 -0.1027320E+00  0.2690574E+00 -0.1234525E+01 -0.8878076E-01  0.2539879E+00
 -0.7215620E+01  0.1349950E+02 -0.1027320E+00  0.2739568E+00 -0.1140151E+01 -0.1143652E+00  0.2489437E+00
 -0.8504060E+01  0.1272720E+02 -0.1027320E+00  0.2803788E+00 -0.1065058E+01 -0.1358304E+00  0.2452802E+00
 -0.9710590E+01  0.1183240E+02 -0.1027320E+00  0.2854560E+00 -0.1000281E+01 -0.1541651E+00  0.2402463E+00
 -0.1082360E+02  0.1082360E+02 -0.1027320E+00  0.2898665E+00 -0.9434736E+00 -0.1701457E+00  0.2346765E+00
 -0.1183240E+02  0.9710590E+01 -0.1027320E+00  0.2944159E+00 -0.8931748E+00 -0.1845816E+00  0.2293694E+00
 -0.1272720E+02  0.8504060E+01 -0.1027320E+00  0.2974584E+00 -0.8498456E+00 -0.1963520E+00  0.2234444E+00
 -0.1349950E+02  0.7215620E+01 -0.1027320E+00  0.2993249E+00 -0.8130085E+00 -0.2057309E+00  0.2174171E+00
 -0.1414170E+02  0.5857690E+01 -0.1027320E+00  0.3012177E+00 -0.7832162E+00 -0.2134573E+00  0.2125278E+00
 -0.1464780E+02  0.4443360E+01 -0.1027320E+00  0.3026444E+00 -0.7581238E+00 -0.2197584E+00  0.2080863E+00
 -0.1501280E+02  0.2986230E+01 -0.1027320E+00  0.3032202E+00 -0.7383150E+00 -0.2242628E+00  0.2040801E+00
 -0.1523320E+02  0.1500340E+01 -0.1027320E+00  0.3026747E+00 -0.7234643E+00 -0.2268598E+00  0.2003662E+00
 -0.1530690E+02 -0.1338170E-05 -0.1027320E+00  0.3013205E+00 -0.7134528E+00 -0.2278305E+00  0.1971987E+00
 -0.1523320E+02 -0.1500340E+01 -0.1027320E+00  0.2989827E+00 -0.7079164E+00 -0.2271426E+00  0.1944142E+00
 -0.1501280E+02 -0.2986230E+01 -0.1027320E+00  0.2955735E+00 -0.7066442E+00 -0.2247970E+00  0.1919115E+00
 -0.1464780E+02 -0.4443360E+01 -0.1027320E+00  0.2906882E+00 -0.7094820E+00 -0.2205449E+00  0.1893662E+00
 -0.1414170E+02 -0.5857700E+01 -0.1027320E+00  0.2847145E+00 -0.7165303E+00 -0.2147001E+00  0.1869926E+00
 -0.1349950E+02 -0.7215620E+01 -0.1027320E+00  0.2785913E+00 -0.7280272E+00 -0.2079652E+00  0.1853742E+00
 -0.1272720E+02 -0.8504060E+01 -0.1027320E+00  0.2724999E+00 -0.7444570E+00 -0.2004117E+00  0.1846385E+00
 -0.1183240E+02 -0.9710600E+01 -0.1027320E+00  0.2639014E+00 -0.7645970E+00 -0.1904475E+00  0.1826848E+00
 -0.1082360E+02 -0.1082360E+02 -0.1027320E+00  0.2511755E+00 -0.7891034E+00 -0.1769486E+00  0.1782648E+00
 -0.9710600E+01 -0.1183240E+02 -0.1027320E+00  0.2384279E+00 -0.8183059E+00 -0.1629557E+00  0.1740498E+00
 -0.8504050E+01 -0.1272720E+02 -0.1027320E+00  0.2229431E+00 -0.8534739E+00 -0.1465559E+00  0.1680029E+00
 -0.7215620E+01 -0.1349950E+02 -0.1027320E+00  0.2022237E+00 -0.8980980E+00 -0.1260053E+00  0.1581679E+00
 -0.5857690E+01 -0.1414170E+02 -0.1027320E+00  0.1780675E+00 -0.9567327E+00 -0.1026013E+00  0.1455369E+00
 -0.4443360E+01 -0.1464780E+02 -0.1027320E+00  0.1450708E+00 -0.1050057E+01 -0.7217582E-01  0.1258419E+00
 -0.2986230E+01 -0.1501280E+02 -0.1027320E+00  0.8993787E-01 -0.1322063E+01 -0.2214061E-01  0.8717003E-01
 -0.1500340E+01 -0.1523320E+02 -0.1027320E+00  0.1167040E+00  0.2920852E+01  0.1138723E+00 -0.2555259E-01
  0.1825330E-06 -0.1530690E+02 -0.1027320E+00  0.1931790E+00  0.2753776E+01  0.1788329E+00 -0.7305418E-01
  0.1500340E+01 -0.1523320E+02 -0.1027320E+00  0.2354393E+00  0.2718492E+01  0.2146783E+00 -0.9666897E-01
  0.2986230E+01 -0.1501280E+02 -0.1027320E+00  0.2373392E+00  0.2714643E+01  0.2160340E+00 -0.9828133E-01
  0.4443360E+01 -0.1464780E+02 -0.1027320E+00  0.2278575E+00  0.2727827E+01  0.2086294E+00 -0.9161242E-01
  0.5857700E+01 -0.1414170E+02 -0.1027320E+00  0.2229624E+00  0.2742973E+01  0.2054816E+00 -0.8654214E-01
  0.7215620E+01 -0.1349950E+02 -0.1027320E+00  0.2177614E+00  0.2761737E+01  0.2022389E+00 -0.8074300E-01
  0.8504060E+01 -0.1272720E+02 -0.1027320E+00  0.2153866E+00  0.2776609E+01  0.2011990E+00 -0.7687888E-01
  0.9710600E+01 -0.1183240E+02 -0.1027320E+00  0.2116183E+00  0.2794200E+01  0.1989770E+00 -0.7204495E-01
  0.1082360E+02 -0.1082360E+02 -0.1027320E+00  0.2072156E+00  0.2812386E+01  0.1960880E+00 -0.6699131E-01
  0.1183240E+02 -0.9710590E+01 -0.1027320E+00  0.2029133E+00  0.2828832E+01  0.1930695E+00 -0.6243360E-01
  0.1272720E+02 -0.8504060E+01 -0.1027320E+00  0.1974537E+00  0.2846285E+01  0.1889065E+00 -0.5746580E-01
  0.1349950E+02 -0.7215620E+01 -0.1027320E+00  0.1912946E+00  0.2863382E+01  0.1839391E+00 -0.5253625E-01
  0.1414170E+02 -0.5857700E+01 -0.1027320E+00  0.1855731E+00  0.2875529E+01  0.1790434E+00 -0.4879374E-01
  0.1464780E+02 -0.4443350E+01 -0.1027320E+00  0.1795634E+00  0.2885702E+01  0.1737165E+00 -0.4544876E-01
  0.1501280E+02 -0.2986230E+01 -0.1027320E+00  0.1734096E+00  0.2893458E+01  0.1680984E+00 -0.4258880E-01
  0.1523320E+02 -0.1500330E+01 -0.1027320E+00  0.1670119E+00  0.2899312E+01  0.1621341E+00 -0.4006903E-01
  0.1530690E+02  0.0000000E+00 -0.2310450E+00  0.1589021E+00  0.2902272E+01  0.1543732E+00 -0.3766664E-01
  0.1523320E+02  0.1500340E+01 -0.2310450E+00  0.1515426E+00  0.2904495E+01  0.1473030E+00 -0.3559471E-01
  0.1501280E+02  0.2986230E+01 -0.2310450E+00  0.1438055E+00  0.2906022E+01  0.1398338E+00 -0.3356395E-01
  0.1464780E+02  0.4443360E+01 -0.2310450E+00  0.1359108E+00  0.2908077E+01  0.1322220E+00 -0.3144963E-01
  0.1414170E+02  0.5857700E+01 -0.2310450E+00  0.1278507E+00  0.2909485E+01  0.1244222E+00 -0.2940943E-01
  0.1349950E+02  0.7215620E+01 -0.2310450E+00  0.1193183E+00  0.2906398E+01  0.1160333E+00 -0.2780500E-01
  0.1272720E+02  0.8504060E+01 -0.2310450E+00  0.1107006E+00  0.2897297E+01  0.1074137E+00 -0.2677547E-01
  0.1183240E+02  0.9710600E+01 -0.2310450E+00  0.1016925E+00  0.2899344E+01  0.9872321E-01 -0.2439461E-01
  0.1082360E+02  0.1082360E+02 -0.2310450E+00  0.9261000E-01  0.2927620E+01  0.9049803E-01 -0.1966515E-01
  0.9710590E+01  0.1183240E+02 -0.2310450E+00  0.8328404E-01  0.2960212E+01  0.8191781E-01 -0.1502341E-01
  0.8504060E+01  0.1272720E+02 -0.2310450E+00  0.7401243E-01  0.3024779E+01  0.7350803E-01 -0.8626036E-02
  0.7215620E+01  0.1349950E+02 -0.2310450E+00  0.6573334E-01 -0.3121207E+01  0.6571968E-01  0.1339962E-02
  0.5857700E+01  0.1414170E+02 -0.2310450E+00  0.6115301E-01 -0.2913059E+01  0.5956300E-01  0.1385422E-01
  0.4443360E+01  0.1464780E+02 -0.2310450E+00  0.6474476E-01 -0.2607047E+01  0.5571287E-01  0.3298423E-01
  0.2986230E+01  0.1501280E+02 -0.2310450E+00  0.9318256E-01 -0.2288205E+01  0.6126143E-01  0.7021414E-01
  0.1500340E+01  0.1523320E+02 -0.2310450E+00  0.2055435E+00 -0.2087226E+01  0.1014929E+00  0.1787381E+00
 -0.6690860E-06  0.1530690E+02 -0.2310450E+00  0.2469619E+00 -0.1980159E+01  0.9829704E-01  0.2265566E+00
 -0.1500340E+01  0.1523320E+02 -0.2310450E+00  0.2613076E+00 -0.1836202E+01  0.6854118E-01  0.2521582E+00
 -0.2986230E+01  0.1501280E+02 -0.2310450E+00  0.2599711E+00 -0.1521305E+01 -0.1286117E-01  0.2596528E+00
 -0.4443360E+01  0.1464780E+02 -0.2310450E+00  0.2620892E+00 -0.1349914E+01 -0.5742134E-01  0.2557216E+00
 -0.5857700E+01  0.1414170E+02 -0.2310450E+00  0.2669661E+00 -0.1234591E+01 -0.8807418E-01  0.2520196E+00
 -0.7215620E+01  0.1349950E+02 -0.2310450E+00  0.2718422E+00 -0.1140392E+01 -0.1134229E+00  0.2470494E+00
 -0.8504060E+01  0.1272720E+02 -0.2310450E+00  0.2781527E+00 -0.1065205E+01 -0.1347163E+00  0.2433525E+00
 -0.9710590E+01  0.1183240E+02 -0.2310450E+00  0.2831986E+00 -0.1000389E+01 -0.1529202E+00  0.2383628E+00
 -0.1082360E+02  0.1082360E+02 -0.2310450E+00  0.2875938E+00 -0.9435740E+00 -0.1687883E+00  0.2328534E+00
 -0.1183240E+02  0.9710590E+01 -0.2310450E+00  0.2920810E+00 -0.8933038E+00 -0.1830885E+00  0.2275740E+00
 -0.1272720E+02  0.8504060E+01 -0.2310450E+00  0.2951144E+00 -0.8499910E+00 -0.1947725E+00  0.2217119E+00
 -0.1349950E+02  0.7215620E+01 -0.2310450E+00  0.2970129E+00 -0.8131928E+00 -0.2041020E+00  0.2157754E+00
 -0.1414170E+02  0.5857690E+01 -0.2310450E+00  0.2989090E+00 -0.7834038E+00 -0.2117817E+00  0.2109386E+00
 -0.1464780E+02  0.4443360E+01 -0.2310450E+00  0.3003301E+00 -0.7583318E+00 -0.2180349E+00  0.2065404E+00
 -0.1501280E+02  0.2986230E+01 -0.2310450E+00  0.3009034E+00 -0.7385273E+00 -0.2225063E+00  0.2025681E+00
 -0.1523320E+02  0.1500340E+01 -0.2310450E+00  0.3003680E+00 -0.7236647E+00 -0.2250911E+00  0.1988843E+00
 -0.1530690E+02 -0.1338170E-05 -0.2310450E+00  0.2990269E+00 -0.7136423E+00 -0.2260592E+00  0.1957405E+00
 -0.1523320E+02 -0.1500340E+01 -0.2310450E+00  0.2967106E+00 -0.7081020E+00 -0.2253807E+00  0.1929786E+00
 -0.1501280E+02 -0.2986230E+01 -0.2310450E+00  0.2933315E+00 -0.7068230E+00 -0.2230578E+00  0.1904957E+00
 -0.1464780E+02 -0.4443360E+01 -0.2310450E+00  0.2884985E+00 -0.7096527E+00 -0.2188516E+00  0.1879770E+00
 -0.1414170E+02 -0.5857700E+01 -0.2310450E+00  0.2825769E+00 -0.7166843E+00 -0.2130596E+00  0.1856215E+00
 -0.1349950E+02 -0.7215620E+01 -0.2310450E+00  0.2764677E+00 -0.7281622E+00 -0.2063551E+00  0.1839890E+00
 -0.1272720E+02 -0.8504060E+01 -0.2310450E+00  0.2703406E+00 -0.7445596E+00 -0.1988048E+00  0.1831958E+00
 -0.1183240E+02 -0.9710600E+01 -0.2310450E+00  0.2617883E+00 -0.7647005E+00 -0.1889037E+00  0.1812415E+00
 -0.1082360E+02 -0.1082360E+02 -0.2310450E+00  0.2492447E+00 -0.7891947E+00 -0.1755722E+00  0.1769104E+00
 -0.9710600E+01 -0.1183240E+02 -0.2310450E+00  0.2365530E+00 -0.8184006E+00 -0.1616579E+00  0.1726964E+00
 -0.8504050E+01 -0.1272720E+02 -0.2310450E+00  0.2211623E+00 -0.8535820E+00 -0.1453673E+00  0.1666767E+00
 -0.7215620E+01 -0.1349950E+02 -0.2310450E+00  0.2006965E+00 -0.8981538E+00 -0.1250450E+00  0.1569804E+00
 -0.5857690E+01 -0.1414170E+02 -0.2310450E+00  0.1767776E+00 -0.9566951E+00 -0.1018635E+00  0.1444789E+00
 -0.4443360E+01 -0.1464780E+02 -0.2310450E+00  0.1440966E+00 -0.1049775E+01 -0.7172641E-01  0.1249766E+00
 -0.2986230E+01 -0.1501280E+02 -0.2310450E+00  0.8913959E-01 -0.1322979E+01 -0.2186488E-01  0.8641639E-01
 -0.1500340E+01 -0.1523320E+02 -0.2310450E+00  0.1155466E+00  0.2922112E+01  0.1127747E+00 -0.2515706E-01
  0.1825330E-06 -0.1530690E+02 -0.2310450E+00  0.1919238E+00  0.2753388E+01  0.1776427E+00 -0.7264846E-01
  0.1500340E+01 -0.1523320E+02 -0.2310450E+00  0.2337908E+00  0.2718246E+01  0.2131516E+00 -0.9604446E-01
  0.2986230E+01 -0.1501280E+02 -0.2310450E+00  0.2356138E+00  0.2714494E+01  0.2144489E+00 -0.9759875E-01
  0.4443360E+01 -0.1464780E+02 -0.2310450E+00  0.2262211E+00  0.2727612E+01  0.2071114E+00 -0.9099904E-01
  0.5857700E+01 -0.1414170E+02 -0.2310450E+00  0.2212780E+00  0.2742832E+01  0.2039172E+00 -0.8591715E-01
  0.7215620E+01 -0.1349950E+02 -0.2310450E+00  0.2161645E+00  0.2761493E+01  0.2007363E+00 -0.8019980E-01
  0.8504060E+01 -0.1272720E+02 -0.2310450E+00  0.2137208E+00  0.2776508E+01  0.1996352E+00 -0.7630438E-01
  0.9710600E+01 -0.1183240E+02 -0.2310450E+00  0.2099784E+00  0.2794072E+01  0.1974259E+00 -0.7151190E-01
  0.1082360E+02 -0.1082360E+02 -0.2310450E+00  0.2056239E+00  0.2812200E+01  0.1945693E+00 -0.6651292E-01
  0.1183240E+02 -0.9710590E+01 -0.2310450E+00  0.2013336E+00  0.2828671E+01  0.1915565E+00 -0.6197840E-01
  0.1272720E+02 -0.8504060E+01 -0.2310450E+00  0.1959317E+00  0.2846066E+01  0.1874378E+00 -0.5706393E-01
  0.1349950E+02 -0.7215620E+01 -0.2310450E+00  0.1898605E+00  0.2862981E+01  0.1825392E+00 -0.5221564E-01
  0.1414170E+02 -0.5857700E+01 -0.2310450E+00  0.1841922E+00  0.2875049E+01  0.1776879E+00 -0.4851592E-01
  0.1464780E+02 -0.4443350E+01 -0.2310450E+00  0.1782330E+00  0.2885154E+01  0.1724047E+00 -0.4520652E-01
  0.1501280E+02 -0.2986230E+01 -0.2310450E+00  0.1721221E+00  0.2892871E+01  0.1668255E+00 -0.4237043E-01
  0.1523320E+02 -0.1500330E+01 -0.2310450E+00  0.1657678E+00  0.2898688E+01  0.1609014E+00 -0.3987101E-01
  0.1530690E+02  0.0000000E+00 -0.4105000E+00  0.1572446E+00  0.2901359E+01  0.1527289E+00 -0.3741320E-01
  0.1523320E+02  0.1500340E+01 -0.4105000E+00  0.1499633E+00  0.2903533E+01  0.1457339E+00 -0.3536393E-01
  0.1501280E+02  0.2986230E+01 -0.4105000E+00  0.1423108E+00  0.2904989E+01  0.1383460E+00 -0.3335793E-01
  0.1464780E+02  0.4443360E+01 -0.4105000E+00  0.1344966E+00  0.2906911E+01  0.1308099E+00 -0.3127497E-01
  0.1414170E+02  0.5857700E+01 -0.4105000E+00  0.1265139E+00  0.2908232E+01  0.1230847E+00 -0.2925616E-01
  0.1349950E+02  0.7215620E+01 -0.4105000E+00  0.1180725E+00  0.2905376E+01  0.1147937E+00 -0.2763202E-01
  0.1272720E+02  0.8504060E+01 -0.4105000E+00  0.1095322E+00  0.2896984E+01  0.1062717E+00 -0.2652612E-01
  0.1183240E+02  0.9710600E+01 -0.4105000E+00  0.1006215E+00  0.2899204E+01  0.9768005E-01 -0.2415133E-01
  0.1082360E+02  0.1082360E+02 -0.4105000E+00  0.9163065E-01  0.2926559E+01  0.8952033E-01 -0.1955217E-01
  0.9710590E+01  0.1183240E+02 -0.4105000E+00  0.8240948E-01  0.2959558E+01  0.8104786E-01 -0.1491865E-01
  0.8504060E+01  0.1272720E+02 -0.4105000E+00  0.7324792E-01  0.3024385E+01  0.7274538E-01 -0.8565540E-02
  0.7215620E+01  0.1349950E+02 -0.4105000E+00  0.6507023E-01 -0.3122970E+01  0.6505895E-01  0.1211729E-02
  0.5857700E+01  0.1414170E+02 -0.4105000E+00  0.6046381E-01 -0.2915559E+01  0.5892578E-01  0.1355080E-01
  0.4443360E+01  0.1464780E+02 -0.4105000E+00  0.6399140E-01 -0.2609502E+01  0.5514449E-01  0.3246514E-01
  0.2986230E+01  0.1501280E+02 -0.4105000E+00  0.9225394E-01 -0.2288992E+01  0.6070561E-01  0.6946667E-01
  0.1500340E+01  0.1523320E+02 -0.4105000E+00  0.2031980E+00 -0.2087809E+01  0.1004379E+00  0.1766399E+00
 -0.6690860E-06  0.1530690E+02 -0.4105000E+00  0.2444357E+00 -0.1980802E+01  0.9743572E-01  0.2241765E+00
 -0.1500340E+01  0.1523320E+02 -0.4105000E+00  0.2585331E+00 -0.1836318E+01  0.6784227E-01  0.2494731E+00
 -0.2986230E+01  0.1501280E+02 -0.4105000E+00  0.2571390E+00 -0.1521748E+01 -0.1260723E-01  0.2568297E+00
 -0.4443360E+01  0.1464780E+02 -0.4105000E+00  0.2592898E+00 -0.1350151E+01 -0.5674803E-01  0.2530037E+00
 -0.5857700E+01  0.1414170E+02 -0.4105000E+00  0.2640744E+00 -0.1234699E+01 -0.8709310E-01  0.2492992E+00
 -0.7215620E+01  0.1349950E+02 -0.4105000E+00  0.2689190E+00 -0.1140744E+01 -0.1121174E+00  0.2444323E+00
 -0.8504060E+01  0.1272720E+02 -0.4105000E+00  0.2750786E+00 -0.1065412E+01 -0.1331776E+00  0.2406905E+00
 -0.9710590E+01  0.1183240E+02 -0.4105000E+00  0.2800789E+00 -0.1000539E+01 -0.1512002E+00  0.2357598E+00
 -0.1082360E+02  0.1082360E+02 -0.4105000E+00  0.2844527E+00 -0.9437121E+00 -0.1669129E+00  0.2303333E+00