 VARIABLES="X" "Y" "Z" "abs(eta) (m)" "angle(phi) (rad)" "PRE1" "PRE2"
ZONE N=   3200 ,E =    3136 ,F=FEPOINT,ET=QUADRILATERAL
  0.1530690E+02  0.0000000E+00  0.0000000E+00  0.2565184E+00 -0.1472245E+01 -0.2523931E-01  0.2552737E+00
  0.1523320E+02  0.1500340E+01  0.0000000E+00  0.2576258E+00 -0.1475166E+01 -0.2459920E-01  0.2564487E+00
  0.1501280E+02  0.2986230E+01  0.0000000E+00  0.2588007E+00 -0.1479451E+01 -0.2360732E-01  0.2577217E+00
  0.1464780E+02  0.4443360E+01  0.0000000E+00  0.2593354E+00 -0.1484900E+01 -0.2224863E-01  0.2583793E+00
  0.1414170E+02  0.5857700E+01  0.0000000E+00  0.2590092E+00 -0.1491402E+01 -0.2054237E-01  0.2581933E+00
  0.1349950E+02  0.7215620E+01  0.0000000E+00  0.2578829E+00 -0.1498964E+01 -0.1850833E-01  0.2572178E+00
  0.1272720E+02  0.8504060E+01  0.0000000E+00  0.2566231E+00 -0.1507864E+01 -0.1613917E-01  0.2561151E+00
  0.1183240E+02  0.9710600E+01  0.0000000E+00  0.2560183E+00 -0.1518478E+01 -0.1338830E-01  0.2556680E+00
  0.1082360E+02  0.1082360E+02  0.0000000E+00  0.2553051E+00 -0.1530575E+01 -0.1026599E-01  0.2550986E+00
  0.9710590E+01  0.1183240E+02  0.0000000E+00  0.2530385E+00 -0.1543615E+01 -0.6876979E-02  0.2529450E+00
  0.8504060E+01  0.1272720E+02  0.0000000E+00  0.2520496E+00 -0.1558323E+01 -0.3143791E-02  0.2520300E+00
  0.7215620E+01  0.1349950E+02  0.0000000E+00  0.2494304E+00 -0.1574492E+01  0.9218677E-03  0.2494287E+00
  0.5857700E+01  0.1414170E+02  0.0000000E+00  0.2436570E+00 -0.1592770E+01  0.5353645E-02  0.2435981E+00
  0.4443360E+01  0.1464780E+02  0.0000000E+00  0.2355950E+00 -0.1613558E+01  0.1007142E-01  0.2353796E+00
  0.2986230E+01  0.1501280E+02  0.0000000E+00  0.2168323E+00 -0.1639774E+01  0.1494482E-01  0.2163167E+00
  0.1500340E+01  0.1523320E+02  0.0000000E+00  0.1336002E+00 -0.1698605E+01  0.1702879E-01  0.1325105E+00
 -0.6690860E-06  0.1530690E+02  0.0000000E+00  0.7288782E-01 -0.1844647E+01  0.1971185E-01  0.7017177E-01
 -0.1500340E+01  0.1523320E+02  0.0000000E+00  0.2321147E-01 -0.3058645E+01  0.2313166E-01  0.1923127E-02
 -0.2986230E+01  0.1501280E+02  0.0000000E+00  0.1121356E+00  0.1827003E+01  0.2841658E-01 -0.1084753E+00
 -0.4443360E+01  0.1464780E+02  0.0000000E+00  0.1418360E+00  0.1801420E+01  0.3242148E-01 -0.1380808E+00
 -0.5857700E+01  0.1414170E+02  0.0000000E+00  0.1562768E+00  0.1802543E+01  0.3589338E-01 -0.1520990E+00
 -0.7215620E+01  0.1349950E+02  0.0000000E+00  0.1664175E+00  0.1807481E+01  0.3902181E-01 -0.1617779E+00
 -0.8504060E+01  0.1272720E+02  0.0000000E+00  0.1727547E+00  0.1816068E+01  0.4194827E-01 -0.1675844E+00
 -0.9710590E+01  0.1183240E+02  0.0000000E+00  0.1768792E+00  0.1826418E+01  0.4472327E-01 -0.1711317E+00
 -0.1082360E+02  0.1082360E+02  0.0000000E+00  0.1818907E+00  0.1833982E+01  0.4732027E-01 -0.1756275E+00
 -0.1183240E+02  0.9710590E+01  0.0000000E+00  0.1848252E+00  0.1842786E+01  0.4965295E-01 -0.1780307E+00
 -0.1272720E+02  0.8504060E+01  0.0000000E+00  0.1875445E+00  0.1850692E+01  0.5181019E-01 -0.1802460E+00
 -0.1349950E+02  0.7215620E+01  0.0000000E+00  0.1909162E+00  0.1856490E+01  0.5380453E-01 -0.1831777E+00
 -0.1414170E+02  0.5857690E+01  0.0000000E+00  0.1939682E+00  0.1861642E+01  0.5562276E-01 -0.1858219E+00
 -0.1464780E+02  0.4443360E+01  0.0000000E+00  0.1960636E+00  0.1867082E+01  0.5724467E-01 -0.1875206E+00
 -0.1501280E+02  0.2986230E+01  0.0000000E+00  0.1971926E+00  0.1872760E+01  0.5864428E-01 -0.1882704E+00
 -0.1523320E+02  0.1500340E+01  0.0000000E+00  0.1976627E+00  0.1878062E+01  0.5978386E-01 -0.1884049E+00
 -0.1530690E+02 -0.1338170E-05  0.0000000E+00  0.1982061E+00  0.1882066E+01  0.6070417E-01 -0.1886814E+00
 -0.1523320E+02 -0.1500340E+01  0.0000000E+00  0.1995516E+00  0.1883927E+01  0.6146963E-01 -0.1898482E+00
 -0.1501280E+02 -0.2986230E+01  0.0000000E+00  0.2009318E+00  0.1884678E+01  0.6203819E-01 -0.1911147E+00
 -0.1464780E+02 -0.4443360E+01  0.0000000E+00  0.2016587E+00  0.1885162E+01  0.6235552E-01 -0.1917759E+00
 -0.1414170E+02 -0.5857700E+01  0.0000000E+00  0.2014992E+00  0.1885546E+01  0.6237986E-01 -0.1916003E+00
 -0.1349950E+02 -0.7215620E+01  0.0000000E+00  0.2005082E+00  0.1885776E+01  0.6211684E-01 -0.1906437E+00
 -0.1272720E+02 -0.8504060E+01  0.0000000E+00  0.1993513E+00  0.1885325E+01  0.6167299E-01 -0.1895716E+00
 -0.1183240E+02 -0.9710600E+01  0.0000000E+00  0.1988233E+00  0.1883841E+01  0.6122902E-01 -0.1891605E+00
 -0.1082360E+02 -0.1082360E+02  0.0000000E+00  0.1981608E+00  0.1882099E+01  0.6069644E-01 -0.1886363E+00
 -0.9710600E+01 -0.1183240E+02  0.0000000E+00  0.1958864E+00  0.1880919E+01  0.5977974E-01 -0.1865418E+00
 -0.8504050E+01 -0.1272720E+02  0.0000000E+00  0.1948395E+00  0.1878287E+01  0.5897174E-01 -0.1857007E+00
 -0.7215620E+01 -0.1349950E+02  0.0000000E+00  0.1921275E+00  0.1876980E+01  0.5791148E-01 -0.1831918E+00
 -0.5857690E+01 -0.1414170E+02  0.0000000E+00  0.1862444E+00  0.1878888E+01  0.5647693E-01 -0.1774749E+00
 -0.4443360E+01 -0.1464780E+02  0.0000000E+00  0.1780167E+00  0.1882921E+01  0.5466564E-01 -0.1694155E+00
 -0.2986230E+01 -0.1501280E+02  0.0000000E+00  0.1590590E+00  0.1898150E+01  0.5114358E-01 -0.1506124E+00
 -0.1500340E+01 -0.1523320E+02  0.0000000E+00  0.7608553E-01  0.2054853E+01  0.3540821E-01 -0.6734438E-01
  0.1825330E-06 -0.1530690E+02  0.0000000E+00  0.2464527E-01  0.2931792E+01  0.2410486E-01 -0.5132741E-02
  0.1500340E+01 -0.1523320E+02  0.0000000E+00  0.6461655E-01 -0.1779170E+01  0.1336715E-01  0.6321881E-01
  0.2986230E+01 -0.1501280E+02  0.0000000E+00  0.1741259E+00 -0.1571432E+01  0.1107173E-03  0.1741259E+00
  0.4443360E+01 -0.1464780E+02  0.0000000E+00  0.2040319E+00 -0.1547739E+01 -0.4703924E-02  0.2039777E+00
  0.5857700E+01 -0.1414170E+02  0.0000000E+00  0.2182958E+00 -0.1533514E+01 -0.8136648E-02  0.2181441E+00
  0.7215620E+01 -0.1349950E+02  0.0000000E+00  0.2282062E+00 -0.1521401E+01 -0.1126780E-01  0.2279278E+00
  0.8504060E+01 -0.1272720E+02  0.0000000E+00  0.2342336E+00 -0.1511421E+01 -0.1389956E-01  0.2338209E+00
  0.9710600E+01 -0.1183240E+02  0.0000000E+00  0.2379860E+00 -0.1502911E+01 -0.1614337E-01  0.2374378E+00
  0.1082360E+02 -0.1082360E+02  0.0000000E+00  0.2426888E+00 -0.1495002E+01 -0.1837685E-01  0.2419921E+00
  0.1183240E+02 -0.9710590E+01  0.0000000E+00  0.2452815E+00 -0.1488116E+01 -0.2025682E-01  0.2444436E+00
  0.1272720E+02 -0.8504060E+01  0.0000000E+00  0.2476719E+00 -0.1482284E+01 -0.2189330E-01  0.2467024E+00
  0.1349950E+02 -0.7215620E+01  0.0000000E+00  0.2507631E+00 -0.1477563E+01 -0.2334573E-01  0.2496740E+00
  0.1414170E+02 -0.5857700E+01  0.0000000E+00  0.2535339E+00 -0.1474061E+01 -0.2448743E-01  0.2523486E+00
  0.1464780E+02 -0.4443350E+01  0.0000000E+00  0.2553214E+00 -0.1471815E+01 -0.2523094E-01  0.2540717E+00
  0.1501280E+02 -0.2986230E+01  0.0000000E+00  0.2561194E+00 -0.1470775E+01 -0.2557477E-01  0.2548393E+00
  0.1523320E+02 -0.1500330E+01  0.0000000E+00  0.2562650E+00 -0.1470861E+01 -0.2556725E-01  0.2549863E+00
  0.1530690E+02  0.0000000E+00 -0.2568960E-01  0.2563221E+00 -0.1472246E+01 -0.2521986E-01  0.2550784E+00
  0.1523320E+02  0.1500340E+01 -0.2568960E-01  0.2574272E+00 -0.1475171E+01 -0.2457903E-01  0.2562511E+00
  0.1501280E+02  0.2986230E+01 -0.2568960E-01  0.2585980E+00 -0.1479447E+01 -0.2358987E-01  0.2575198E+00
  0.1464780E+02  0.4443360E+01 -0.2568960E-01  0.2591359E+00 -0.1484897E+01 -0.2223217E-01  0.2581804E+00
  0.1414170E+02  0.5857700E+01 -0.2568960E-01  0.2588151E+00 -0.1491404E+01 -0.2052630E-01  0.2579999E+00
  0.1349950E+02  0.7215620E+01 -0.2568960E-01  0.2576985E+00 -0.1498972E+01 -0.1849309E-01  0.2570341E+00
  0.1272720E+02  0.8504060E+01 -0.2568960E-01  0.2564489E+00 -0.1507872E+01 -0.1612628E-01  0.2559413E+00
  0.1183240E+02  0.9710600E+01 -0.2568960E-01  0.2558438E+00 -0.1518485E+01 -0.1337735E-01  0.2554938E+00
  0.1082360E+02  0.1082360E+02 -0.2568960E-01  0.2551261E+00 -0.1530578E+01 -0.1025803E-01  0.2549198E+00
  0.9710590E+01  0.1183240E+02 -0.2568960E-01  0.2528745E+00 -0.1543625E+01 -0.6870020E-02  0.2527811E+00
  0.8504060E+01  0.1272720E+02 -0.2568960E-01  0.2518792E+00 -0.1558324E+01 -0.3141557E-02  0.2518596E+00
  0.7215620E+01  0.1349950E+02 -0.2568960E-01  0.2492685E+00 -0.1574494E+01  0.9217691E-03  0.2492668E+00
  0.5857700E+01  0.1414170E+02 -0.2568960E-01  0.2434988E+00 -0.1592767E+01  0.5349378E-02  0.2434401E+00
  0.4443360E+01  0.1464780E+02 -0.2568960E-01  0.2354527E+00 -0.1613560E+01  0.1006566E-01  0.2352375E+00
  0.2986230E+01  0.1501280E+02 -0.2568960E-01  0.2167025E+00 -0.1639771E+01  0.1493504E-01  0.2161873E+00
  0.1500340E+01  0.1523320E+02 -0.2568960E-01  0.1335395E+00 -0.1698578E+01  0.1701747E-01  0.1324508E+00
 -0.6690860E-06  0.1530690E+02 -0.2568960E-01  0.7283434E-01 -0.1844658E+01  0.1969811E-01  0.7012007E-01
 -0.1500340E+01  0.1523320E+02 -0.2568960E-01  0.2319336E-01 -0.3060266E+01  0.2311670E-01  0.1884161E-02
 -0.2986230E+01  0.1501280E+02 -0.2568960E-01  0.1120718E+00  0.1826972E+01  0.2839704E-01 -0.1084145E+00
 -0.4443360E+01  0.1464780E+02 -0.2568960E-01  0.1417595E+00  0.1801382E+01  0.3239883E-01 -0.1380076E+00
 -0.5857700E+01  0.1414170E+02 -0.2568960E-01  0.1561782E+00  0.1802526E+01  0.3586810E-01 -0.1520036E+00
 -0.7215620E+01  0.1349950E+02 -0.2568960E-01  0.1663177E+00  0.1807452E+01  0.3899365E-01 -0.1616820E+00
 -0.8504060E+01  0.1272720E+02 -0.2568960E-01  0.1726423E+00  0.1816063E+01  0.4192007E-01 -0.1674756E+00
 -0.9710590E+01  0.1183240E+02 -0.2568960E-01  0.1767717E+00  0.1826393E+01  0.4469196E-01 -0.1710289E+00
 -0.1082360E+02  0.1082360E+02 -0.2568960E-01  0.1817642E+00  0.1833973E+01  0.4728588E-01 -0.1755058E+00
 -0.1183240E+02  0.9710590E+01 -0.2568960E-01  0.1847024E+00  0.1842777E+01  0.4961832E-01 -0.1779128E+00
 -0.1272720E+02  0.8504060E+01 -0.2568960E-01  0.1874210E+00  0.1850675E+01  0.5177304E-01 -0.1801283E+00
 -0.1349950E+02  0.7215620E+01 -0.2568960E-01  0.1907826E+00  0.1856490E+01  0.5376696E-01 -0.1830494E+00
 -0.1414170E+02  0.5857690E+01 -0.2568960E-01  0.1938224E+00  0.1861654E+01  0.5558329E-01 -0.1856815E+00
 -0.1464780E+02  0.4443360E+01 -0.2568960E-01  0.1959098E+00  0.1867102E+01  0.5720353E-01 -0.1873723E+00
 -0.1501280E+02  0.2986230E+01 -0.2568960E-01  0.1970361E+00  0.1872779E+01  0.5860120E-01 -0.1881200E+00
 -0.1523320E+02  0.1500340E+01 -0.2568960E-01  0.1975081E+00  0.1878084E+01  0.5974117E-01 -0.1882563E+00
 -0.1530690E+02 -0.1338170E-05 -0.2568960E-01  0.1980532E+00  0.1882083E+01  0.6066057E-01 -0.1885348E+00
 -0.1523320E+02 -0.1500340E+01 -0.2568960E-01  0.1993957E+00  0.1883948E+01  0.6142552E-01 -0.1896985E+00
 -0.1501280E+02 -0.2986230E+01 -0.2568960E-01  0.2007726E+00  0.1884701E+01  0.6199347E-01 -0.1909619E+00
 -0.1464780E+02 -0.4443360E+01 -0.2568960E-01  0.2015011E+00  0.1885174E+01  0.6230920E-01 -0.1916253E+00
 -0.1414170E+02 -0.5857700E+01 -0.2568960E-01  0.2013482E+00  0.1885561E+01  0.6233593E-01 -0.1914558E+00
 -0.1349950E+02 -0.7215620E+01 -0.2568960E-01  0.2003673E+00  0.1885780E+01  0.6207403E-01 -0.1905095E+00
 -0.1272720E+02 -0.8504060E+01 -0.2568960E-01  0.1992189E+00  0.1885323E+01  0.6163163E-01 -0.1894458E+00
 -0.1183240E+02 -0.9710600E+01 -0.2568960E-01  0.1986901E+00  0.1883835E+01  0.6118678E-01 -0.1890343E+00
 -0.1082360E+02 -0.1082360E+02 -0.2568960E-01  0.1980232E+00  0.1882092E+01  0.6065296E-01 -0.1885057E+00
 -0.9710600E+01 -0.1183240E+02 -0.2568960E-01  0.1957651E+00  0.1880907E+01  0.5974044E-01 -0.1864271E+00
 -0.8504050E+01 -0.1272720E+02 -0.2568960E-01  0.1947120E+00  0.1878282E+01  0.5893216E-01 -0.1855795E+00
 -0.7215620E+01 -0.1349950E+02 -0.2568960E-01  0.1920088E+00  0.1876975E+01  0.5787480E-01 -0.1830789E+00
 -0.5857690E+01 -0.1414170E+02 -0.2568960E-01  0.1861278E+00  0.1878874E+01  0.5643912E-01 -0.1773646E+00
 -0.4443360E+01 -0.1464780E+02 -0.2568960E-01  0.1779169E+00  0.1882898E+01  0.5463101E-01 -0.1693218E+00
 -0.2986230E+01 -0.1501280E+02 -0.2568960E-01  0.1589715E+00  0.1898119E+01  0.5111073E-01 -0.1505312E+00
 -0.1500340E+01 -0.1523320E+02 -0.2568960E-01  0.7606610E-01  0.2054710E+01  0.3538951E-01 -0.6733227E-01
  0.1825330E-06 -0.1530690E+02 -0.2568960E-01  0.2463041E-01  0.2931789E+01  0.2409030E-01 -0.5129728E-02
  0.1500340E+01 -0.1523320E+02 -0.2568960E-01  0.6460507E-01 -0.1779024E+01  0.1335558E-01  0.6320953E-01
  0.2986230E+01 -0.1501280E+02 -0.2568960E-01  0.1740178E+00 -0.1571415E+01  0.1077197E-03  0.1740178E+00
  0.4443360E+01 -0.1464780E+02 -0.2568960E-01  0.2039101E+00 -0.1547736E+01 -0.4701828E-02  0.2038559E+00
  0.5857700E+01 -0.1414170E+02 -0.2568960E-01  0.2181523E+00 -0.1533512E+01 -0.8131775E-02  0.2180007E+00
  0.7215620E+01 -0.1349950E+02 -0.2568960E-01  0.2280623E+00 -0.1521400E+01 -0.1126085E-01  0.2277841E+00
  0.8504060E+01 -0.1272720E+02 -0.2568960E-01  0.2340758E+00 -0.1511418E+01 -0.1389076E-01  0.2336633E+00
  0.9710600E+01 -0.1183240E+02 -0.2568960E-01  0.2378341E+00 -0.1502906E+01 -0.1613420E-01  0.2372862E+00
  0.1082360E+02 -0.1082360E+02 -0.2568960E-01  0.2425177E+00 -0.1495001E+01 -0.1836418E-01  0.2418214E+00
  0.1183240E+02 -0.9710590E+01 -0.2568960E-01  0.2451158E+00 -0.1488117E+01 -0.2024287E-01  0.2442785E+00
  0.1272720E+02 -0.8504060E+01 -0.2568960E-01  0.2475050E+00 -0.1482288E+01 -0.2187777E-01  0.2465362E+00
  0.1349950E+02 -0.7215620E+01 -0.2568960E-01  0.2505851E+00 -0.1477564E+01 -0.2332892E-01  0.2494968E+00
  0.1414170E+02 -0.5857700E+01 -0.2568960E-01  0.2533447E+00 -0.1474066E+01 -0.2446795E-01  0.2521604E+00
  0.1464780E+02 -0.4443350E+01 -0.2568960E-01  0.2551225E+00 -0.1471822E+01 -0.2520949E-01  0.2538739E+00
  0.1501280E+02 -0.2986230E+01 -0.2568960E-01  0.2559190E+00 -0.1470778E+01 -0.2555400E-01  0.2546400E+00
  0.1523320E+02 -0.1500330E+01 -0.2568960E-01  0.2560667E+00 -0.1470861E+01 -0.2554747E-01  0.2547891E+00
  0.1530690E+02  0.0000000E+00 -0.1027320E+00  0.2557481E+00 -0.1472248E+01 -0.2516279E-01  0.2545072E+00
  0.1523320E+02  0.1500340E+01 -0.1027320E+00  0.2568466E+00 -0.1475174E+01 -0.2452278E-01  0.2556733E+00
  0.1501280E+02  0.2986230E+01 -0.1027320E+00  0.2580074E+00 -0.1479450E+01 -0.2353524E-01  0.2569317E+00
  0.1464780E+02  0.4443360E+01 -0.1027320E+00  0.2585499E+00 -0.1484899E+01 -0.2218135E-01  0.2575966E+00
  0.1414170E+02  0.5857700E+01 -0.1027320E+00  0.2582487E+00 -0.1491408E+01 -0.2048038E-01  0.2574354E+00
  0.1349950E+02  0.7215620E+01 -0.1027320E+00  0.2571622E+00 -0.1498985E+01 -0.1845123E-01  0.2564994E+00
  0.1272720E+02  0.8504060E+01 -0.1027320E+00  0.2559363E+00 -0.1507885E+01 -0.1609070E-01  0.2554300E+00
  0.1183240E+02  0.9710600E+01 -0.1027320E+00  0.2553280E+00 -0.1518494E+01 -0.1334802E-01  0.2549789E+00
  0.1082360E+02  0.1082360E+02 -0.1027320E+00  0.2545967E+00 -0.1530581E+01 -0.1023579E-01  0.2543908E+00
  0.9710590E+01  0.1183240E+02 -0.1027320E+00  0.2523932E+00 -0.1543639E+01 -0.6853473E-02  0.2523001E+00
  0.8504060E+01  0.1272720E+02 -0.1027320E+00  0.2513746E+00 -0.1558336E+01 -0.3132239E-02  0.2513551E+00
  0.7215620E+01  0.1349950E+02 -0.1027320E+00  0.2487699E+00 -0.1574504E+01  0.9222954E-03  0.2487682E+00
  0.5857700E+01  0.1414170E+02 -0.1027320E+00  0.2430334E+00 -0.1592767E+01  0.5339183E-02  0.2429747E+00
  0.4443360E+01  0.1464780E+02 -0.1027320E+00  0.2350273E+00 -0.1613559E+01  0.1004725E-01  0.2348124E+00
  0.2986230E+01  0.1501280E+02 -0.1027320E+00  0.2162959E+00 -0.1639758E+01  0.1490432E-01  0.2157818E+00
  0.1500340E+01  0.1523320E+02 -0.1027320E+00  0.1333449E+00 -0.1698521E+01  0.1698517E-01  0.1322587E+00
 -0.6690860E-06  0.1530690E+02 -0.1027320E+00  0.7268073E-01 -0.1844697E+01  0.1965933E-01  0.6997141E-01
 -0.1500340E+01  0.1523320E+02 -0.1027320E+00  0.2313905E-01 -0.3065263E+01  0.2307167E-01  0.1764480E-02
 -0.2986230E+01  0.1501280E+02 -0.1027320E+00  0.1118628E+00  0.1826900E+01  0.2833632E-01 -0.1082143E+00
 -0.4443360E+01  0.1464780E+02 -0.1027320E+00  0.1415324E+00  0.1801272E+01  0.3233175E-01 -0.1377899E+00
 -0.5857700E+01  0.1414170E+02 -0.1027320E+00  0.1558919E+00  0.1802458E+01  0.3579194E-01 -0.1517274E+00
 -0.7215620E+01  0.1349950E+02 -0.1027320E+00  0.1660016E+00  0.1807407E+01  0.3891222E-01 -0.1613765E+00
 -0.8504060E+01  0.1272720E+02 -0.1027320E+00  0.1723099E+00  0.1816022E+01  0.4183254E-01 -0.1671549E+00
 -0.9710590E+01  0.1183240E+02 -0.1027320E+00  0.1764558E+00  0.1826313E+01  0.4459842E-01 -0.1707268E+00
 -0.1082360E+02  0.1082360E+02 -0.1027320E+00  0.1813918E+00  0.1833954E+01  0.4718552E-01 -0.1751471E+00
 -0.1183240E+02  0.9710590E+01 -0.1027320E+00  0.1843436E+00  0.1842730E+01  0.4951359E-01 -0.1775696E+00
 -0.1272720E+02  0.8504060E+01 -0.1027320E+00  0.1870622E+00  0.1850629E+01  0.5166563E-01 -0.1797858E+00
 -0.1349950E+02  0.7215620E+01 -0.1027320E+00  0.1903934E+00  0.1856467E+01  0.5365314E-01 -0.1826773E+00
 -0.1414170E+02  0.5857690E+01 -0.1027320E+00  0.1933976E+00  0.1861674E+01  0.5546513E-01 -0.1852734E+00
 -0.1464780E+02  0.4443360E+01 -0.1027320E+00  0.1954627E+00  0.1867146E+01  0.5708120E-01 -0.1869422E+00
 -0.1501280E+02  0.2986230E+01 -0.1027320E+00  0.1965825E+00  0.1872830E+01  0.5847596E-01 -0.1876839E+00
 -0.1523320E+02  0.1500340E+01 -0.1027320E+00  0.1970598E+00  0.1878122E+01  0.5961262E-01 -0.1878267E+00
 -0.1530690E+02 -0.1338170E-05 -0.1027320E+00  0.1976090E+00  0.1882107E+01  0.6052890E-01 -0.1881106E+00
 -0.1523320E+02 -0.1500340E+01 -0.1027320E+00  0.1989429E+00  0.1883979E+01  0.6129192E-01 -0.1892659E+00
 -0.1501280E+02 -0.2986230E+01 -0.1027320E+00  0.2003103E+00  0.1884740E+01  0.6185829E-01 -0.1905198E+00
 -0.1464780E+02 -0.4443360E+01 -0.1027320E+00  0.2010419E+00  0.1885207E+01  0.6217339E-01 -0.1911866E+00
 -0.1414170E+02 -0.5857700E+01 -0.1027320E+00  0.2009069E+00  0.1885572E+01  0.6220150E-01 -0.1910355E+00
 -0.1349950E+02 -0.7215620E+01 -0.1027320E+00  0.1999571E+00  0.1885769E+01  0.6194481E-01 -0.1901202E+00
 -0.1272720E+02 -0.8504060E+01 -0.1027320E+00  0.1988326E+00  0.1885296E+01  0.6150696E-01 -0.1890802E+00
 -0.1183240E+02 -0.9710600E+01 -0.1027320E+00  0.1983003E+00  0.1883810E+01  0.6106202E-01 -0.1886649E+00
 -0.1082360E+02 -0.1082360E+02 -0.1027320E+00  0.1976193E+00  0.1882076E+01  0.6052626E-01 -0.1881222E+00
 -0.9710600E+01 -0.1183240E+02 -0.1027320E+00  0.1954084E+00  0.1880851E+01  0.5962119E-01 -0.1860908E+00
 -0.8504050E+01 -0.1272720E+02 -0.1027320E+00  0.1943314E+00  0.1878248E+01  0.5881072E-01 -0.1852188E+00
 -0.7215620E+01 -0.1349950E+02 -0.1027320E+00  0.1916352E+00  0.1876953E+01  0.5775809E-01 -0.1827240E+00
 -0.5857690E+01 -0.1414170E+02 -0.1027320E+00  0.1857882E+00  0.1878819E+01  0.5632632E-01 -0.1770440E+00
 -0.4443360E+01 -0.1464780E+02 -0.1027320E+00  0.1776163E+00  0.1882831E+01  0.5452738E-01 -0.1690394E+00
 -0.2986230E+01 -0.1501280E+02 -0.1027320E+00  0.1586910E+00  0.1898036E+01  0.5100807E-01 -0.1502697E+00
 -0.1500340E+01 -0.1523320E+02 -0.1027320E+00  0.7599538E-01  0.2054332E+01  0.3533121E-01 -0.6728301E-01
  0.1825330E-06 -0.1530690E+02 -0.1027320E+00  0.2458076E-01  0.2931611E+01  0.2404083E-01 -0.5123673E-02
  0.1500340E+01 -0.1523320E+02 -0.1027320E+00  0.6457549E-01 -0.1778518E+01  0.1331746E-01  0.6318733E-01
  0.2986230E+01 -0.1501280E+02 -0.1027320E+00  0.1736731E+00 -0.1571388E+01  0.1028393E-03  0.1736730E+00
  0.4443360E+01 -0.1464780E+02 -0.1027320E+00  0.2035488E+00 -0.1547710E+01 -0.4698786E-02  0.2034945E+00
  0.5857700E+01 -0.1414170E+02 -0.1027320E+00  0.2177304E+00 -0.1533495E+01 -0.8119674E-02  0.2175790E+00
  0.7215620E+01 -0.1349950E+02 -0.1027320E+00  0.2276119E+00 -0.1521398E+01 -0.1123910E-01  0.2273342E+00
  0.8504060E+01 -0.1272720E+02 -0.1027320E+00  0.2336095E+00 -0.1511415E+01 -0.1386398E-01  0.2331978E+00
  0.9710600E+01 -0.1183240E+02 -0.1027320E+00  0.2373863E+00 -0.1502903E+01 -0.1610454E-01  0.2368394E+00
  0.1082360E+02 -0.1082360E+02 -0.1027320E+00  0.2420134E+00 -0.1495001E+01 -0.1832596E-01  0.2413186E+00
  0.1183240E+02 -0.9710590E+01 -0.1027320E+00  0.2446254E+00 -0.1488115E+01 -0.2020282E-01  0.2437897E+00
  0.1272720E+02 -0.8504060E+01 -0.1027320E+00  0.2470163E+00 -0.1482296E+01 -0.2183243E-01  0.2460496E+00
  0.1349950E+02 -0.7215620E+01 -0.1027320E+00  0.2500652E+00 -0.1477572E+01 -0.2327840E-01  0.2489794E+00
  0.1414170E+02 -0.5857700E+01 -0.1027320E+00  0.2527879E+00 -0.1474076E+01 -0.2441159E-01  0.2516064E+00
  0.1464780E+02 -0.4443350E+01 -0.1027320E+00  0.2545444E+00 -0.1471826E+01 -0.2515120E-01  0.2532988E+00
  0.1501280E+02 -0.2986230E+01 -0.1027320E+00  0.2553340E+00 -0.1470781E+01 -0.2549478E-01  0.2540580E+00
  0.1523320E+02 -0.1500330E+01 -0.1027320E+00  0.2554890E+00 -0.1470866E+01 -0.2548866E-01  0.2542143E+00
  0.1530690E+02  0.0000000E+00 -0.2310450E+00  0.2547957E+00 -0.1472253E+01 -0.2506790E-01  0.2535596E+00
  0.1523320E+02  0.1500340E+01 -0.2310450E+00  0.2558790E+00 -0.1475172E+01 -0.2443110E-01  0.2547100E+00
  0.1501280E+02  0.2986230E+01 -0.2310450E+00  0.2570246E+00 -0.1479443E+01 -0.2344734E-01  0.2559529E+00
  0.1464780E+02  0.4443360E+01 -0.2310450E+00  0.2575735E+00 -0.1484894E+01 -0.2209903E-01  0.2566237E+00
  0.1414170E+02  0.5857700E+01 -0.2310450E+00  0.2573031E+00 -0.1491409E+01 -0.2040523E-01  0.2564927E+00
  0.1349950E+02  0.7215620E+01 -0.2310450E+00  0.2562663E+00 -0.1499000E+01 -0.1838328E-01  0.2556061E+00
  0.1272720E+02  0.8504060E+01 -0.2310450E+00  0.2550797E+00 -0.1507917E+01 -0.1602875E-01  0.2545756E+00
  0.1183240E+02  0.9710600E+01 -0.2310450E+00  0.2544665E+00 -0.1518520E+01 -0.1329665E-01  0.2541189E+00
  0.1082360E+02  0.1082360E+02 -0.2310450E+00  0.2537131E+00 -0.1530590E+01 -0.1019819E-01  0.2535080E+00
  0.9710590E+01  0.1183240E+02 -0.2310450E+00  0.2515870E+00 -0.1543657E+01 -0.6827064E-02  0.2514943E+00
  0.8504060E+01  0.1272720E+02 -0.2310450E+00  0.2505329E+00 -0.1558349E+01 -0.3118454E-02  0.2505135E+00
  0.7215620E+01  0.1349950E+02 -0.2310450E+00  0.2479377E+00 -0.1574521E+01  0.9235760E-03  0.2479360E+00
  0.5857700E+01  0.1414170E+02 -0.2310450E+00  0.2422586E+00 -0.1592769E+01  0.5322566E-02  0.2422001E+00
  0.4443360E+01  0.1464780E+02 -0.2310450E+00  0.2343062E+00 -0.1613556E+01  0.1001591E-01  0.2340920E+00
  0.2986230E+01  0.1501280E+02 -0.2310450E+00  0.2156431E+00 -0.1639737E+01  0.1485488E-01  0.2151308E+00
  0.1500340E+01  0.1523320E+02 -0.2310450E+00  0.1329521E+00 -0.1698471E+01  0.1692849E-01  0.1318700E+00
 -0.6690860E-06  0.1530690E+02 -0.2310450E+00  0.7242331E-01 -0.1844780E+01  0.1959549E-01  0.6972197E-01
 -0.1500340E+01  0.1523320E+02 -0.2310450E+00  0.2305532E-01 -0.3068350E+01  0.2299351E-01  0.1687129E-02
 -0.2986230E+01  0.1501280E+02 -0.2310450E+00  0.1115490E+00  0.1826717E+01  0.2823706E-01 -0.1079160E+00
 -0.4443360E+01  0.1464780E+02 -0.2310450E+00  0.1411363E+00  0.1801126E+01  0.3222118E-01 -0.1374091E+00
 -0.5857700E+01  0.1414170E+02 -0.2310450E+00  0.1554139E+00  0.1802360E+01  0.3566740E-01 -0.1512657E+00
 -0.7215620E+01  0.1349950E+02 -0.2310450E+00  0.1654721E+00  0.1807346E+01  0.3877843E-01 -0.1608641E+00
 -0.8504060E+01  0.1272720E+02 -0.2310450E+00  0.1717526E+00  0.1815962E+01  0.4168722E-01 -0.1666168E+00
 -0.9710590E+01  0.1183240E+02 -0.2310450E+00  0.1759250E+00  0.1826188E+01  0.4444297E-01 -0.1702187E+00
 -0.1082360E+02  0.1082360E+02 -0.2310450E+00  0.1807694E+00  0.1833924E+01  0.4701850E-01 -0.1745475E+00
 -0.1183240E+02  0.9710590E+01 -0.2310450E+00  0.1837411E+00  0.1842666E+01  0.4934056E-01 -0.1769924E+00
 -0.1272720E+02  0.8504060E+01 -0.2310450E+00  0.1864612E+00  0.1850549E+01  0.5148526E-01 -0.1792122E+00
 -0.1349950E+02  0.7215620E+01 -0.2310450E+00  0.1897426E+00  0.1856447E+01  0.5346603E-01 -0.1820540E+00
 -0.1414170E+02  0.5857690E+01 -0.2310450E+00  0.1926883E+00  0.1861722E+01  0.5527046E-01 -0.1845913E+00
 -0.1464780E+02  0.4443360E+01 -0.2310450E+00  0.1947167E+00  0.1867230E+01  0.5687898E-01 -0.1862240E+00
 -0.1501280E+02  0.2986230E+01 -0.2310450E+00  0.1958256E+00  0.1872918E+01  0.5826717E-01 -0.1869562E+00
 -0.1523320E+02  0.1500340E+01 -0.2310450E+00  0.1963116E+00  0.1878191E+01  0.5939932E-01 -0.1871095E+00
 -0.1530690E+02 -0.1338170E-05 -0.2310450E+00  0.1968681E+00  0.1882170E+01  0.6031386E-01 -0.1874014E+00
 -0.1523320E+02 -0.1500340E+01 -0.2310450E+00  0.1981873E+00  0.1884048E+01  0.6107208E-01 -0.1885428E+00
 -0.1501280E+02 -0.2986230E+01 -0.2310450E+00  0.1995400E+00  0.1884812E+01  0.6163410E-01 -0.1897827E+00
 -0.1464780E+02 -0.4443360E+01 -0.2310450E+00  0.2002766E+00  0.1885264E+01  0.6194757E-01 -0.1904553E+00
 -0.1414170E+02 -0.5857700E+01 -0.2310450E+00  0.2001721E+00  0.1885601E+01  0.6197935E-01 -0.1903350E+00
 -0.1349950E+02 -0.7215620E+01 -0.2310450E+00  0.1992709E+00  0.1885756E+01  0.6172970E-01 -0.1894685E+00
 -0.1272720E+02 -0.8504060E+01 -0.2310450E+00  0.1981843E+00  0.1885253E+01  0.6129844E-01 -0.1884663E+00
 -0.1183240E+02 -0.9710600E+01 -0.2310450E+00  0.1976467E+00  0.1883775E+01  0.6085425E-01 -0.1880452E+00
 -0.1082360E+02 -0.1082360E+02 -0.2310450E+00  0.1969427E+00  0.1882048E+01  0.6031379E-01 -0.1874797E+00
 -0.9710600E+01 -0.1183240E+02 -0.2310450E+00  0.1948098E+00  0.1880774E+01  0.5942434E-01 -0.1855252E+00
 -0.8504050E+01 -0.1272720E+02 -0.2310450E+00  0.1936986E+00  0.1878211E+01  0.5861234E-01 -0.1846178E+00
 -0.7215620E+01 -0.1349950E+02 -0.2310450E+00  0.1910120E+00  0.1876913E+01  0.5756294E-01 -0.1821321E+00
 -0.5857690E+01 -0.1414170E+02 -0.2310450E+00  0.1852222E+00  0.1878725E+01  0.5613809E-01 -0.1765100E+00
 -0.4443360E+01 -0.1464780E+02 -0.2310450E+00  0.1771052E+00  0.1882720E+01  0.5435187E-01 -0.1685590E+00
 -0.2986230E+01 -0.1501280E+02 -0.2310450E+00  0.1582462E+00  0.1897888E+01  0.5084297E-01 -0.1498561E+00
 -0.1500340E+01 -0.1523320E+02 -0.2310450E+00  0.7580905E-01  0.2053972E+01  0.3522044E-01 -0.6713071E-01
  0.1825330E-06 -0.1530690E+02 -0.2310450E+00  0.2450008E-01  0.2931532E+01  0.2396152E-01 -0.5108729E-02
  0.1500340E+01 -0.1523320E+02 -0.2310450E+00  0.6440816E-01 -0.1778244E+01  0.1326570E-01  0.6302723E-01
  0.2986230E+01 -0.1501280E+02 -0.2310450E+00  0.1731360E+00 -0.1571331E+01  0.9255826E-04  0.1731359E+00
  0.4443360E+01 -0.1464780E+02 -0.2310450E+00  0.2029296E+00 -0.1547668E+01 -0.4692926E-02  0.2028753E+00
  0.5857700E+01 -0.1414170E+02 -0.2310450E+00  0.2170313E+00 -0.1533468E+01 -0.8099516E-02  0.2168801E+00
  0.7215620E+01 -0.1349950E+02 -0.2310450E+00  0.2268574E+00 -0.1521395E+01 -0.1120242E-01  0.2265806E+00
  0.8504060E+01 -0.1272720E+02 -0.2310450E+00  0.2328304E+00 -0.1511422E+01 -0.1381605E-01  0.2324201E+00
  0.9710600E+01 -0.1183240E+02 -0.2310450E+00  0.2366377E+00 -0.1502889E+01 -0.1605720E-01  0.2360922E+00
  0.1082360E+02 -0.1082360E+02 -0.2310450E+00  0.2411712E+00 -0.1495002E+01 -0.1826181E-01  0.2404788E+00
  0.1183240E+02 -0.9710590E+01 -0.2310450E+00  0.2438056E+00 -0.1488119E+01 -0.2013419E-01  0.2429728E+00
  0.1272720E+02 -0.8504060E+01 -0.2310450E+00  0.2461987E+00 -0.1482301E+01 -0.2175910E-01  0.2452353E+00
  0.1349950E+02 -0.7215620E+01 -0.2310450E+00  0.2491966E+00 -0.1477583E+01 -0.2319480E-01  0.2481148E+00
  0.1414170E+02 -0.5857700E+01 -0.2310450E+00  0.2518609E+00 -0.1474091E+01 -0.2431829E-01  0.2506841E+00
  0.1464780E+02 -0.4443350E+01 -0.2310450E+00  0.2535810E+00 -0.1471839E+01 -0.2505265E-01  0.2523404E+00
  0.1501280E+02 -0.2986230E+01 -0.2310450E+00  0.2543604E+00 -0.1470788E+01 -0.2539581E-01  0.2530895E+00
  0.1523320E+02 -0.1500330E+01 -0.2310450E+00  0.2545263E+00 -0.1470873E+01 -0.2539089E-01  0.2532566E+00
  0.1530690E+02  0.0000000E+00 -0.4105000E+00  0.2534787E+00 -0.1472261E+01 -0.2493623E-01  0.2522491E+00
  0.1523320E+02  0.1500340E+01 -0.4105000E+00  0.2545430E+00 -0.1475176E+01 -0.2430248E-01  0.2533802E+00
  0.1501280E+02  0.2986230E+01 -0.4105000E+00  0.2556699E+00 -0.1479438E+01 -0.2332498E-01  0.2546037E+00
  0.1464780E+02  0.4443360E+01 -0.4105000E+00  0.2562261E+00 -0.1484892E+01 -0.2198399E-01  0.2552813E+00
  0.1414170E+02  0.5857700E+01 -0.4105000E+00  0.2560005E+00 -0.1491418E+01 -0.2029964E-01  0.2551944E+00
  0.1349950E+02  0.7215620E+01 -0.4105000E+00  0.2550340E+00 -0.1499027E+01 -0.1828797E-01  0.2543775E+00
  0.1272720E+02  0.8504060E+01 -0.4105000E+00  0.2539019E+00 -0.1507959E+01 -0.1594414E-01  0.2534007E+00
  0.1183240E+02  0.9710600E+01 -0.4105000E+00  0.2532777E+00 -0.1518549E+01 -0.1322697E-01  0.2529321E+00
  0.1082360E+02  0.1082360E+02 -0.4105000E+00  0.2524906E+00 -0.1530601E+01 -0.1014628E-01  0.2522866E+00
  0.9710590E+01  0.1183240E+02 -0.4105000E+00  0.2504716E+00 -0.1543687E+01 -0.6789238E-02  0.2503796E+00
  0.8504060E+01  0.1272720E+02 -0.4105000E+00  0.2493581E+00 -0.1558369E+01 -0.3098786E-02  0.2493389E+00
  0.7215620E+01  0.1349950E+02 -0.4105000E+00  0.2467486E+00 -0.1574542E+01  0.9242679E-03  0.2467469E+00
  0.5857700E+01  0.1414170E+02 -0.4105000E+00  0.2411446E+00 -0.1592768E+01  0.5297842E-02  0.2410864E+00
  0.4443360E+01  0.1464780E+02 -0.4105000E+00  0.2332232E+00 -0.1613564E+01  0.9971465E-02  0.2330099E+00
  0.2986230E+01  0.1501280E+02 -0.4105000E+00  0.2146519E+00 -0.1639727E+01  0.1478436E-01  0.2141422E+00
  0.1500340E+01  0.1523320E+02 -0.4105000E+00  0.1323118E+00 -0.1698491E+01  0.1684959E-01  0.1312345E+00
 -0.6690860E-06  0.1530690E+02 -0.4105000E+00  0.7204899E-01 -0.1844947E+01  0.1950577E-01  0.6935836E-01
 -0.1500340E+01  0.1523320E+02 -0.4105000E+00  0.2294847E-01 -0.3069199E+01  0.2288837E-01  0.1659872E-02
 -0.2986230E+01  0.1501280E+02 -0.4105000E+00  0.1110553E+00  0.1826616E+01  0.2810127E-01 -0.1074411E+00
 -0.4443360E+01  0.1464780E+02 -0.4105000E+00  0.1405087E+00  0.1801040E+01  0.3206617E-01 -0.1368008E+00
 -0.5857700E+01  0.1414170E+02 -0.4105000E+00  0.1547133E+00  0.1802263E+01  0.3549211E-01 -0.1505872E+00
 -0.7215620E+01  0.1349950E+02 -0.4105000E+00  0.1647000E+00  0.1807306E+01  0.3859101E-01 -0.1601150E+00
 -0.8504060E+01  0.1272720E+02 -0.4105000E+00  0.1709734E+00  0.1815892E+01  0.4148661E-01 -0.1658637E+00
 -0.9710590E+01  0.1183240E+02 -0.4105000E+00  0.1751902E+00  0.1826012E+01  0.4422758E-01 -0.1695156E+00
 -0.1082360E+02  0.1082360E+02 -0.4105000E+00  0.1799081E+00  0.1833885E+01  0.4678759E-01 -0.1737178E+00