 VARIABLES="X" "Y" "Z" "abs(eta) (m)" "angle(phi) (rad)" "PRE1" "PRE2"
ZONE N=   3200 ,E =    3136 ,F=FEPOINT,ET=QUADRILATERAL
  0.1672760E+02  0.0000000E+00  0.0000000E+00  0.2049086E+00 -0.1456442E+01 -0.2338118E-01  0.2035703E+00
  0.1664710E+02  0.1639590E+01  0.0000000E+00  0.2037805E+00 -0.1454090E+01 -0.2372847E-01  0.2023943E+00
  0.1640620E+02  0.3263390E+01  0.0000000E+00  0.2033380E+00 -0.1453033E+01 -0.2389050E-01  0.2019297E+00
  0.1600730E+02  0.4855770E+01  0.0000000E+00  0.2031765E+00 -0.1453180E+01 -0.2384189E-01  0.2017727E+00
  0.1545430E+02  0.6401380E+01  0.0000000E+00  0.2027473E+00 -0.1454478E+01 -0.2353004E-01  0.2013773E+00
  0.1475240E+02  0.7885340E+01  0.0000000E+00  0.1999611E+00 -0.1457262E+01 -0.2265374E-01  0.1986738E+00
  0.1390850E+02  0.9293360E+01  0.0000000E+00  0.1952098E+00 -0.1461900E+01 -0.2121560E-01  0.1940536E+00
  0.1293060E+02  0.1061190E+02  0.0000000E+00  0.1904893E+00 -0.1467875E+01 -0.1957079E-01  0.1894813E+00
  0.1182820E+02  0.1182820E+02  0.0000000E+00  0.1857403E+00 -0.1475102E+01 -0.1774716E-01  0.1848905E+00
  0.1061190E+02  0.1293060E+02  0.0000000E+00  0.1797269E+00 -0.1483981E+01 -0.1558348E-01  0.1790500E+00
  0.9293360E+01  0.1390850E+02  0.0000000E+00  0.1714416E+00 -0.1495196E+01 -0.1294877E-01  0.1709519E+00
  0.7885330E+01  0.1475240E+02  0.0000000E+00  0.1620972E+00 -0.1508561E+01 -0.1008158E-01  0.1617833E+00
  0.6401380E+01  0.1545430E+02  0.0000000E+00  0.1470720E+00 -0.1529071E+01 -0.6134885E-02  0.1469440E+00
  0.4855770E+01  0.1600730E+02  0.0000000E+00  0.1245771E+00 -0.1563890E+01 -0.8604227E-03  0.1245741E+00
  0.3263390E+01  0.1640620E+02  0.0000000E+00  0.8750366E-01 -0.1652787E+01  0.7166450E-02  0.8720971E-01
  0.1639590E+01  0.1664710E+02  0.0000000E+00  0.3666921E-01 -0.2113651E+01  0.1894265E-01  0.3139756E-01
 -0.7311870E-06  0.1672760E+02  0.0000000E+00  0.3664982E-01  0.2547174E+01  0.3036343E-01 -0.2052490E-01
 -0.1639590E+01  0.1664710E+02  0.0000000E+00  0.7609358E-01  0.2128826E+01  0.4029274E-01 -0.6455021E-01
 -0.3263390E+01  0.1640620E+02  0.0000000E+00  0.1113994E+00  0.2017053E+01  0.4807907E-01 -0.1004900E+00
 -0.4855770E+01  0.1600730E+02  0.0000000E+00  0.1312557E+00  0.1978198E+01  0.5200678E-01 -0.1205129E+00
 -0.6401380E+01  0.1545430E+02  0.0000000E+00  0.1421901E+00  0.1960120E+01  0.5397005E-01 -0.1315494E+00
 -0.7885340E+01  0.1475240E+02  0.0000000E+00  0.1486868E+00  0.1950469E+01  0.5510576E-01 -0.1380983E+00
 -0.9293360E+01  0.1390850E+02  0.0000000E+00  0.1514435E+00  0.1946150E+01  0.5551944E-01 -0.1408996E+00
 -0.1061190E+02  0.1293060E+02  0.0000000E+00  0.1539522E+00  0.1942583E+01  0.5592788E-01 -0.1434341E+00
 -0.1182820E+02  0.1182820E+02  0.0000000E+00  0.1554883E+00  0.1939706E+01  0.5606884E-01 -0.1450273E+00
 -0.1293060E+02  0.1061190E+02  0.0000000E+00  0.1562381E+00  0.1937721E+01  0.5604992E-01 -0.1458381E+00
 -0.1390850E+02  0.9293360E+01  0.0000000E+00  0.1570504E+00  0.1935381E+01  0.5599815E-01 -0.1467278E+00
 -0.1475240E+02  0.7885330E+01  0.0000000E+00  0.1579707E+00  0.1932423E+01  0.5588947E-01 -0.1477535E+00
 -0.1545430E+02  0.6401370E+01  0.0000000E+00  0.1574232E+00  0.1930431E+01  0.5540227E-01 -0.1473521E+00
 -0.1600730E+02  0.4855770E+01  0.0000000E+00  0.1548679E+00  0.1930389E+01  0.5449688E-01 -0.1449626E+00
 -0.1640620E+02  0.3263390E+01  0.0000000E+00  0.1521662E+00  0.1929914E+01  0.5347852E-01 -0.1424591E+00
 -0.1664710E+02  0.1639590E+01  0.0000000E+00  0.1496808E+00  0.1928348E+01  0.5238558E-01 -0.1402144E+00
 -0.1672760E+02 -0.1462370E-05  0.0000000E+00  0.1475608E+00  0.1925392E+01  0.5123483E-01 -0.1383806E+00
 -0.1664710E+02 -0.1639590E+01  0.0000000E+00  0.1460333E+00  0.1919828E+01  0.4994160E-01 -0.1372281E+00
 -0.1640620E+02 -0.3263400E+01  0.0000000E+00  0.1450939E+00  0.1910856E+01  0.4839510E-01 -0.1367850E+00
 -0.1600730E+02 -0.4855770E+01  0.0000000E+00  0.1443773E+00  0.1899485E+01  0.4660531E-01 -0.1366483E+00
 -0.1545430E+02 -0.6401380E+01  0.0000000E+00  0.1433851E+00  0.1887037E+01  0.4459216E-01 -0.1362748E+00
 -0.1475240E+02 -0.7885340E+01  0.0000000E+00  0.1401799E+00  0.1878400E+01  0.4244309E-01 -0.1336001E+00
 -0.1390850E+02 -0.9293360E+01  0.0000000E+00  0.1351433E+00  0.1873109E+01  0.4023599E-01 -0.1290146E+00
 -0.1293060E+02 -0.1061190E+02  0.0000000E+00  0.1301169E+00  0.1866138E+01  0.3787270E-01 -0.1244832E+00
 -0.1182820E+02 -0.1182820E+02  0.0000000E+00  0.1250353E+00  0.1857376E+01  0.3534417E-01 -0.1199359E+00
 -0.1061190E+02 -0.1293060E+02  0.0000000E+00  0.1187424E+00  0.1849922E+01  0.3271536E-01 -0.1141467E+00
 -0.9293350E+01 -0.1390850E+02  0.0000000E+00  0.1102853E+00  0.1846843E+01  0.3005866E-01 -0.1061100E+00
 -0.7885340E+01 -0.1475240E+02  0.0000000E+00  0.1007871E+00  0.1845238E+01  0.2731427E-01 -0.9701529E-01
 -0.6401370E+01 -0.1545430E+02  0.0000000E+00  0.8593781E-01  0.1863950E+01  0.2483370E-01 -0.8227146E-01
 -0.4855760E+01 -0.1600730E+02  0.0000000E+00  0.6418782E-01  0.1932774E+01  0.2273046E-01 -0.6002835E-01
 -0.3263390E+01 -0.1640620E+02  0.0000000E+00  0.3148262E-01  0.2329628E+01  0.2166238E-01 -0.2284506E-01
 -0.1639590E+01 -0.1664710E+02  0.0000000E+00  0.3949273E-01 -0.2162660E+01  0.2203335E-01  0.3277510E-01
  0.1994750E-06 -0.1672760E+02  0.0000000E+00  0.8743230E-01 -0.1824302E+01  0.2192796E-01  0.8463788E-01
  0.1639600E+01 -0.1664710E+02  0.0000000E+00  0.1303989E+00 -0.1729310E+01  0.2058355E-01  0.1287641E+00
  0.3263390E+01 -0.1640620E+02  0.0000000E+00  0.1658744E+00 -0.1677316E+01  0.1763546E-01  0.1649342E+00
  0.4855770E+01 -0.1600730E+02  0.0000000E+00  0.1856399E+00 -0.1642063E+01  0.1321878E-01  0.1851686E+00
  0.6401380E+01 -0.1545430E+02  0.0000000E+00  0.1965420E+00 -0.1614317E+01  0.8550929E-02  0.1963558E+00
  0.7885340E+01 -0.1475240E+02  0.0000000E+00  0.2030579E+00 -0.1590815E+01  0.4064713E-02  0.2030172E+00
  0.9293360E+01 -0.1390850E+02  0.0000000E+00  0.2059061E+00 -0.1569574E+01 -0.2516580E-03  0.2059059E+00
  0.1061190E+02 -0.1293060E+02  0.0000000E+00  0.2085531E+00 -0.1550867E+01 -0.4156136E-02  0.2085117E+00
  0.1182820E+02 -0.1182820E+02  0.0000000E+00  0.2102996E+00 -0.1533920E+01 -0.7753406E-02  0.2101566E+00
  0.1293060E+02 -0.1061190E+02  0.0000000E+00  0.2112927E+00 -0.1518790E+01 -0.1098351E-01  0.2110070E+00
  0.1390850E+02 -0.9293360E+01  0.0000000E+00  0.2123764E+00 -0.1505658E+01 -0.1382406E-01  0.2119260E+00
  0.1475240E+02 -0.7885330E+01  0.0000000E+00  0.2135951E+00 -0.1494486E+01 -0.1628374E-01  0.2129735E+00
  0.1545430E+02 -0.6401380E+01  0.0000000E+00  0.2133820E+00 -0.1484226E+01 -0.1844952E-01  0.2125829E+00
  0.1600730E+02 -0.4855760E+01  0.0000000E+00  0.2111713E+00 -0.1474593E+01 -0.2028409E-01  0.2101949E+00
  0.1640620E+02 -0.3263390E+01  0.0000000E+00  0.2088160E+00 -0.1466623E+01 -0.2171379E-01  0.2076839E+00
  0.1664710E+02 -0.1639590E+01  0.0000000E+00  0.2066796E+00 -0.1460537E+01 -0.2274223E-01  0.2054246E+00
  0.1672760E+02  0.0000000E+00 -0.2568960E-01  0.2047704E+00 -0.1456449E+01 -0.2336401E-01  0.2034332E+00
  0.1664710E+02  0.1639590E+01 -0.2568960E-01  0.2036422E+00 -0.1454098E+01 -0.2371079E-01  0.2022571E+00
  0.1640620E+02  0.3263390E+01 -0.2568960E-01  0.2031942E+00 -0.1453034E+01 -0.2387330E-01  0.2017869E+00
  0.1600730E+02  0.4855770E+01 -0.2568960E-01  0.2030235E+00 -0.1453184E+01 -0.2382295E-01  0.2016210E+00
  0.1545430E+02  0.6401380E+01 -0.2568960E-01  0.2025848E+00 -0.1454482E+01 -0.2351050E-01  0.2012160E+00
  0.1475240E+02  0.7885340E+01 -0.2568960E-01  0.1998043E+00 -0.1457271E+01 -0.2263427E-01  0.1985181E+00
  0.1390850E+02  0.9293360E+01 -0.2568960E-01  0.1950697E+00 -0.1461897E+01 -0.2120093E-01  0.1939142E+00
  0.1293060E+02  0.1061190E+02 -0.2568960E-01  0.1903591E+00 -0.1467874E+01 -0.1955763E-01  0.1893517E+00
  0.1182820E+02  0.1182820E+02 -0.2568960E-01  0.1856111E+00 -0.1475102E+01 -0.1773480E-01  0.1847619E+00
  0.1061190E+02  0.1293060E+02 -0.2568960E-01  0.1795997E+00 -0.1483981E+01 -0.1557240E-01  0.1789233E+00
  0.9293360E+01  0.1390850E+02 -0.2568960E-01  0.1713298E+00 -0.1495195E+01 -0.1294040E-01  0.1708404E+00
  0.7885330E+01  0.1475240E+02 -0.2568960E-01  0.1619815E+00 -0.1508568E+01 -0.1007326E-01  0.1616680E+00
  0.6401380E+01  0.1545430E+02 -0.2568960E-01  0.1469763E+00 -0.1529064E+01 -0.6131921E-02  0.1468483E+00
  0.4855770E+01  0.1600730E+02 -0.2568960E-01  0.1244996E+00 -0.1563874E+01 -0.8618325E-03  0.1244966E+00
  0.3263390E+01  0.1640620E+02 -0.2568960E-01  0.8742731E-01 -0.1652828E+01  0.7163805E-02  0.8713332E-01
  0.1639590E+01  0.1664710E+02 -0.2568960E-01  0.3662642E-01 -0.2114096E+01  0.1893453E-01  0.3135248E-01
 -0.7311870E-06  0.1672760E+02 -0.2568960E-01  0.3663501E-01  0.2546883E+01  0.3034518E-01 -0.2052545E-01
 -0.1639590E+01  0.1664710E+02 -0.2568960E-01  0.7604598E-01  0.2128812E+01  0.4026665E-01 -0.6451037E-01
 -0.3263390E+01  0.1640620E+02 -0.2568960E-01  0.1113238E+00  0.2017049E+01  0.4804608E-01 -0.1004220E+00
 -0.4855770E+01  0.1600730E+02 -0.2568960E-01  0.1311789E+00  0.1978176E+01  0.5197370E-01 -0.1204435E+00
 -0.6401380E+01  0.1545430E+02 -0.2568960E-01  0.1421009E+00  0.1960106E+01  0.5393440E-01 -0.1314677E+00
 -0.7885340E+01  0.1475240E+02 -0.2568960E-01  0.1485836E+00  0.1950471E+01  0.5506774E-01 -0.1380022E+00
 -0.9293360E+01  0.1390850E+02 -0.2568960E-01  0.1513457E+00  0.1946143E+01  0.5548261E-01 -0.1408091E+00
 -0.1061190E+02  0.1293060E+02 -0.2568960E-01  0.1538466E+00  0.1942584E+01  0.5588963E-01 -0.1433357E+00
 -0.1182820E+02  0.1182820E+02 -0.2568960E-01  0.1553814E+00  0.1939713E+01  0.5603137E-01 -0.1449271E+00
 -0.1293060E+02  0.1061190E+02 -0.2568960E-01  0.1561309E+00  0.1937724E+01  0.5601192E-01 -0.1457379E+00
 -0.1390850E+02  0.9293360E+01 -0.2568960E-01  0.1569369E+00  0.1935386E+01  0.5595841E-01 -0.1466215E+00
 -0.1475240E+02  0.7885330E+01 -0.2568960E-01  0.1578457E+00  0.1932443E+01  0.5584822E-01 -0.1476355E+00
 -0.1545430E+02  0.6401370E+01 -0.2568960E-01  0.1572953E+00  0.1930453E+01  0.5536055E-01 -0.1472312E+00
 -0.1600730E+02  0.4855770E+01 -0.2568960E-01  0.1547502E+00  0.1930404E+01  0.5445776E-01 -0.1448516E+00
 -0.1640620E+02  0.3263390E+01 -0.2568960E-01  0.1520580E+00  0.1929918E+01  0.5344111E-01 -0.1423576E+00
 -0.1664710E+02  0.1639590E+01 -0.2568960E-01  0.1495800E+00  0.1928338E+01  0.5234889E-01 -0.1401206E+00
 -0.1672760E+02 -0.1462370E-05 -0.2568960E-01  0.1474647E+00  0.1925369E+01  0.5119816E-01 -0.1382917E+00
 -0.1664710E+02 -0.1639590E+01 -0.2568960E-01  0.1459369E+00  0.1919816E+01  0.4990706E-01 -0.1371381E+00
 -0.1640620E+02 -0.3263400E+01 -0.2568960E-01  0.1449924E+00  0.1910855E+01  0.4836105E-01 -0.1366895E+00
 -0.1600730E+02 -0.4855770E+01 -0.2568960E-01  0.1442676E+00  0.1899496E+01  0.4657146E-01 -0.1365439E+00
 -0.1545430E+02 -0.6401380E+01 -0.2568960E-01  0.1432680E+00  0.1887080E+01  0.4456155E-01 -0.1361616E+00
 -0.1475240E+02 -0.7885340E+01 -0.2568960E-01  0.1400684E+00  0.1878438E+01  0.4241437E-01 -0.1334923E+00
 -0.1390850E+02 -0.9293360E+01 -0.2568960E-01  0.1350480E+00  0.1873110E+01  0.4020784E-01 -0.1289236E+00
 -0.1293060E+02 -0.1061190E+02 -0.2568960E-01  0.1300300E+00  0.1866116E+01  0.3784471E-01 -0.1244009E+00
 -0.1182820E+02 -0.1182820E+02 -0.2568960E-01  0.1249505E+00  0.1857368E+01  0.3531922E-01 -0.1198548E+00
 -0.1061190E+02 -0.1293060E+02 -0.2568960E-01  0.1186597E+00  0.1849919E+01  0.3269221E-01 -0.1140673E+00
 -0.9293350E+01 -0.1390850E+02 -0.2568960E-01  0.1102181E+00  0.1846809E+01  0.3003682E-01 -0.1060463E+00
 -0.7885340E+01 -0.1475240E+02 -0.2568960E-01  0.1007173E+00  0.1845242E+01  0.2729574E-01 -0.9694800E-01
 -0.6401370E+01 -0.1545430E+02 -0.2568960E-01  0.8588667E-01  0.1863908E+01  0.2481547E-01 -0.8222355E-01
 -0.4855760E+01 -0.1600730E+02 -0.2568960E-01  0.6415368E-01  0.1932703E+01  0.2271413E-01 -0.5999802E-01
 -0.3263390E+01 -0.1640620E+02 -0.2568960E-01  0.3145210E-01  0.2329959E+01  0.2164893E-01 -0.2281574E-01
 -0.1639590E+01 -0.1664710E+02 -0.2568960E-01  0.3948492E-01 -0.2162415E+01  0.2202095E-01  0.3277403E-01
  0.1994750E-06 -0.1672760E+02 -0.2568960E-01  0.8738325E-01 -0.1824289E+01  0.2191455E-01  0.8459069E-01
  0.1639600E+01 -0.1664710E+02 -0.2568960E-01  0.1303115E+00 -0.1729332E+01  0.2057255E-01  0.1286773E+00
  0.3263390E+01 -0.1640620E+02 -0.2568960E-01  0.1657591E+00 -0.1677328E+01  0.1762514E-01  0.1648194E+00
  0.4855770E+01 -0.1600730E+02 -0.2568960E-01  0.1855231E+00 -0.1642069E+01  0.1321159E-01  0.1850521E+00
  0.6401380E+01 -0.1545430E+02 -0.2568960E-01  0.1964117E+00 -0.1614326E+01  0.8546947E-02  0.1962256E+00
  0.7885340E+01 -0.1475240E+02 -0.2568960E-01  0.2029149E+00 -0.1590821E+01  0.4063100E-02  0.2028742E+00
  0.9293360E+01 -0.1390850E+02 -0.2568960E-01  0.2057686E+00 -0.1569585E+01 -0.2492694E-03  0.2057684E+00
  0.1061190E+02 -0.1293060E+02 -0.2568960E-01  0.2084071E+00 -0.1550872E+01 -0.4152103E-02  0.2083658E+00
  0.1182820E+02 -0.1182820E+02 -0.2568960E-01  0.2101517E+00 -0.1533927E+01 -0.7746398E-02  0.2100088E+00
  0.1293060E+02 -0.1061190E+02 -0.2568960E-01  0.2111447E+00 -0.1518796E+01 -0.1097473E-01  0.2108593E+00
  0.1390850E+02 -0.9293360E+01 -0.2568960E-01  0.2122225E+00 -0.1505669E+01 -0.1381179E-01  0.2117726E+00
  0.1475240E+02 -0.7885330E+01 -0.2568960E-01  0.2134288E+00 -0.1494488E+01 -0.1627060E-01  0.2128077E+00
  0.1545430E+02 -0.6401380E+01 -0.2568960E-01  0.2132131E+00 -0.1484223E+01 -0.1843549E-01  0.2124146E+00
  0.1600730E+02 -0.4855760E+01 -0.2568960E-01  0.2110126E+00 -0.1474591E+01 -0.2026923E-01  0.2100368E+00
  0.1640620E+02 -0.3263390E+01 -0.2568960E-01  0.2086667E+00 -0.1466627E+01 -0.2169741E-01  0.2075355E+00
  0.1664710E+02 -0.1639590E+01 -0.2568960E-01  0.2065374E+00 -0.1460547E+01 -0.2272446E-01  0.2052835E+00
  0.1672760E+02  0.0000000E+00 -0.1027320E+00  0.2043720E+00 -0.1456464E+01 -0.2331549E-01  0.2030377E+00
  0.1664710E+02  0.1639590E+01 -0.1027320E+00  0.2032415E+00 -0.1454100E+01 -0.2366369E-01  0.2018591E+00
  0.1640620E+02  0.3263390E+01 -0.1027320E+00  0.2027756E+00 -0.1453042E+01 -0.2382257E-01  0.2013714E+00
  0.1600730E+02  0.4855770E+01 -0.1027320E+00  0.2025783E+00 -0.1453191E+01 -0.2376934E-01  0.2011790E+00
  0.1545430E+02  0.6401380E+01 -0.1027320E+00  0.2021114E+00 -0.1454494E+01 -0.2345296E-01  0.2007460E+00
  0.1475240E+02  0.7885340E+01 -0.1027320E+00  0.1993476E+00 -0.1457282E+01 -0.2258029E-01  0.1980647E+00
  0.1390850E+02  0.9293360E+01 -0.1027320E+00  0.1946595E+00 -0.1461905E+01 -0.2115480E-01  0.1935066E+00
  0.1293060E+02  0.1061190E+02 -0.1027320E+00  0.1899757E+00 -0.1467875E+01 -0.1951795E-01  0.1889704E+00
  0.1182820E+02  0.1182820E+02 -0.1027320E+00  0.1852314E+00 -0.1475099E+01 -0.1769902E-01  0.1843839E+00
  0.1061190E+02  0.1293060E+02 -0.1027320E+00  0.1792250E+00 -0.1483978E+01 -0.1554047E-01  0.1785500E+00
  0.9293360E+01  0.1390850E+02 -0.1027320E+00  0.1709997E+00 -0.1495174E+01 -0.1291909E-01  0.1705110E+00
  0.7885330E+01  0.1475240E+02 -0.1027320E+00  0.1616385E+00 -0.1508576E+01 -0.1005078E-01  0.1613257E+00
  0.6401380E+01  0.1545430E+02 -0.1027320E+00  0.1466934E+00 -0.1529038E+01 -0.6123902E-02  0.1465655E+00
  0.4855770E+01  0.1600730E+02 -0.1027320E+00  0.1242669E+00 -0.1563830E+01 -0.8657066E-03  0.1242638E+00
  0.3263390E+01  0.1640620E+02 -0.1027320E+00  0.8721369E-01 -0.1652928E+01  0.7154940E-02  0.8691970E-01
  0.1639590E+01  0.1664710E+02 -0.1027320E+00  0.3649628E-01 -0.2115335E+01  0.1890592E-01  0.3121769E-01
 -0.7311870E-06  0.1672760E+02 -0.1027320E+00  0.3658752E-01  0.2546074E+01  0.3028925E-01 -0.2052335E-01
 -0.1639590E+01  0.1664710E+02 -0.1027320E+00  0.7589961E-01  0.2128741E+01  0.4018455E-01 -0.6438906E-01
 -0.3263390E+01  0.1640620E+02 -0.1027320E+00  0.1111109E+00  0.2017004E+01  0.4794965E-01 -0.1002321E+00
 -0.4855770E+01  0.1600730E+02 -0.1027320E+00  0.1309517E+00  0.1978098E+01  0.5187430E-01 -0.1202390E+00
 -0.6401380E+01  0.1545430E+02 -0.1027320E+00  0.1418369E+00  0.1960064E+01  0.5382864E-01 -0.1312257E+00
 -0.7885340E+01  0.1475240E+02 -0.1027320E+00  0.1482776E+00  0.1950453E+01  0.5495194E-01 -0.1377190E+00
 -0.9293360E+01  0.1390850E+02 -0.1027320E+00  0.1510612E+00  0.1946105E+01  0.5537297E-01 -0.1405465E+00
 -0.1061190E+02  0.1293060E+02 -0.1027320E+00  0.1535361E+00  0.1942566E+01  0.5577423E-01 -0.1430475E+00
 -0.1182820E+02  0.1182820E+02 -0.1027320E+00  0.1550696E+00  0.1939702E+01  0.5591723E-01 -0.1446369E+00
 -0.1293060E+02  0.1061190E+02 -0.1027320E+00  0.1558189E+00  0.1937715E+01  0.5589860E-01 -0.1454471E+00
 -0.1390850E+02  0.9293360E+01 -0.1027320E+00  0.1566071E+00  0.1935396E+01  0.5584220E-01 -0.1463128E+00
 -0.1475240E+02  0.7885330E+01 -0.1027320E+00  0.1574830E+00  0.1932483E+01  0.5572566E-01 -0.1472941E+00
 -0.1545430E+02  0.6401370E+01 -0.1027320E+00  0.1569240E+00  0.1930509E+01  0.5523811E-01 -0.1468805E+00
 -0.1600730E+02  0.4855770E+01 -0.1027320E+00  0.1544105E+00  0.1930426E+01  0.5434130E-01 -0.1445324E+00
 -0.1640620E+02  0.3263390E+01 -0.1027320E+00  0.1517491E+00  0.1929895E+01  0.5332926E-01 -0.1420696E+00
 -0.1664710E+02  0.1639590E+01 -0.1027320E+00  0.1492934E+00  0.1928288E+01  0.5224158E-01 -0.1398547E+00
 -0.1672760E+02 -0.1462370E-05 -0.1027320E+00  0.1471900E+00  0.1925292E+01  0.5109219E-01 -0.1380380E+00
 -0.1664710E+02 -0.1639590E+01 -0.1027320E+00  0.1456611E+00  0.1919737E+01  0.4980187E-01 -0.1368829E+00
 -0.1640620E+02 -0.3263400E+01 -0.1027320E+00  0.1447006E+00  0.1910819E+01  0.4825884E-01 -0.1364161E+00
 -0.1600730E+02 -0.4855770E+01 -0.1027320E+00  0.1439525E+00  0.1899525E+01  0.4647368E-01 -0.1362444E+00
 -0.1545430E+02 -0.6401380E+01 -0.1027320E+00  0.1429271E+00  0.1887170E+01  0.4446785E-01 -0.1358336E+00
 -0.1475240E+02 -0.7885340E+01 -0.1027320E+00  0.1397438E+00  0.1878503E+01  0.4232480E-01 -0.1331801E+00
 -0.1390850E+02 -0.9293360E+01 -0.1027320E+00  0.1347689E+00  0.1873093E+01  0.4012254E-01 -0.1286578E+00
 -0.1293060E+02 -0.1061190E+02 -0.1027320E+00  0.1297775E+00  0.1866053E+01  0.3776335E-01 -0.1241617E+00
 -0.1182820E+02 -0.1182820E+02 -0.1027320E+00  0.1247022E+00  0.1857325E+01  0.3524387E-01 -0.1196182E+00
 -0.1061190E+02 -0.1293060E+02 -0.1027320E+00  0.1184174E+00  0.1849902E+01  0.3262354E-01 -0.1138349E+00
 -0.9293350E+01 -0.1390850E+02 -0.1027320E+00  0.1100208E+00  0.1846712E+01  0.2997277E-01 -0.1058594E+00
 -0.7885340E+01 -0.1475240E+02 -0.1027320E+00  0.1005091E+00  0.1845243E+01  0.2723941E-01 -0.9674757E-01
 -0.6401370E+01 -0.1545430E+02 -0.1027320E+00  0.8573584E-01  0.1863791E+01  0.2476225E-01 -0.8208207E-01
 -0.4855760E+01 -0.1600730E+02 -0.1027320E+00  0.6405053E-01  0.1932488E+01  0.2266475E-01 -0.5990643E-01
 -0.3263390E+01 -0.1640620E+02 -0.1027320E+00  0.3137168E-01  0.2330591E+01  0.2160795E-01 -0.2274376E-01
 -0.1639590E+01 -0.1664710E+02 -0.1027320E+00  0.3945820E-01 -0.2161691E+01  0.2198232E-01  0.3276778E-01
  0.1994750E-06 -0.1672760E+02 -0.1027320E+00  0.8723587E-01 -0.1824280E+01  0.2187681E-01  0.8444822E-01
  0.1639600E+01 -0.1664710E+02 -0.1027320E+00  0.1300469E+00 -0.1729367E+01  0.2053538E-01  0.1284153E+00
  0.3263390E+01 -0.1640620E+02 -0.1027320E+00  0.1654255E+00 -0.1677346E+01  0.1759264E-01  0.1644874E+00
  0.4855770E+01 -0.1600730E+02 -0.1027320E+00  0.1851759E+00 -0.1642085E+01  0.1318973E-01  0.1847056E+00
  0.6401380E+01 -0.1545430E+02 -0.1027320E+00  0.1960282E+00 -0.1614345E+01  0.8534118E-02  0.1958423E+00
  0.7885340E+01 -0.1475240E+02 -0.1027320E+00  0.2024897E+00 -0.1590833E+01  0.4056893E-02  0.2024491E+00
  0.9293360E+01 -0.1390850E+02 -0.1027320E+00  0.2053636E+00 -0.1569606E+01 -0.2444871E-03  0.2053634E+00
  0.1061190E+02 -0.1293060E+02 -0.1027320E+00  0.2079769E+00 -0.1550889E+01 -0.4139980E-02  0.2079356E+00
  0.1182820E+02 -0.1182820E+02 -0.1027320E+00  0.2097195E+00 -0.1533949E+01 -0.7725781E-02  0.2095771E+00
  0.1293060E+02 -0.1061190E+02 -0.1027320E+00  0.2107102E+00 -0.1518812E+01 -0.1094874E-01  0.2104256E+00
  0.1390850E+02 -0.9293360E+01 -0.1027320E+00  0.2117710E+00 -0.1505679E+01 -0.1378018E-01  0.2113222E+00
  0.1475240E+02 -0.7885330E+01 -0.1027320E+00  0.2129443E+00 -0.1494487E+01 -0.1623391E-01  0.2123246E+00
  0.1545430E+02 -0.6401380E+01 -0.1027320E+00  0.2127175E+00 -0.1484215E+01 -0.1839438E-01  0.2119206E+00
  0.1600730E+02 -0.4855760E+01 -0.1027320E+00  0.2105487E+00 -0.1474597E+01 -0.2022333E-01  0.2095753E+00
  0.1640620E+02 -0.3263390E+01 -0.1027320E+00  0.2082332E+00 -0.1466637E+01 -0.2165020E-01  0.2071047E+00
  0.1664710E+02 -0.1639590E+01 -0.1027320E+00  0.2061258E+00 -0.1460559E+01 -0.2267684E-01  0.2048746E+00
  0.1672760E+02  0.0000000E+00 -0.2310450E+00  0.2037103E+00 -0.1456489E+01 -0.2323484E-01  0.2023809E+00
  0.1664710E+02  0.1639590E+01 -0.2310450E+00  0.2025760E+00 -0.1454122E+01 -0.2358175E-01  0.2011987E+00
  0.1640620E+02  0.3263390E+01 -0.2310450E+00  0.2020814E+00 -0.1453054E+01 -0.2373850E-01  0.2006822E+00
  0.1600730E+02  0.4855770E+01 -0.2310450E+00  0.2018382E+00 -0.1453208E+01 -0.2367922E-01  0.2004444E+00
  0.1545430E+02  0.6401380E+01 -0.2310450E+00  0.2013239E+00 -0.1454525E+01 -0.2335548E-01  0.1999646E+00
  0.1475240E+02  0.7885340E+01 -0.2310450E+00  0.1985861E+00 -0.1457315E+01 -0.2248746E-01  0.1973087E+00
  0.1390850E+02  0.9293360E+01 -0.2310450E+00  0.1939768E+00 -0.1461918E+01 -0.2107821E-01  0.1928281E+00
  0.1293060E+02  0.1061190E+02 -0.2310450E+00  0.1893363E+00 -0.1467875E+01 -0.1945245E-01  0.1883343E+00
  0.1182820E+02  0.1182820E+02 -0.2310450E+00  0.1845976E+00 -0.1475106E+01 -0.1763724E-01  0.1837531E+00
  0.1061190E+02  0.1293060E+02 -0.2310450E+00  0.1785973E+00 -0.1483992E+01 -0.1548362E-01  0.1779249E+00
  0.9293360E+01  0.1390850E+02 -0.2310450E+00  0.1704495E+00 -0.1495159E+01 -0.1288011E-01  0.1699622E+00
  0.7885330E+01  0.1475240E+02 -0.2310450E+00  0.1610676E+00 -0.1508595E+01 -0.1001211E-01  0.1607561E+00
  0.6401380E+01  0.1545430E+02 -0.2310450E+00  0.1462176E+00 -0.1529007E+01 -0.6108618E-02  0.1460899E+00
  0.4855770E+01  0.1600730E+02 -0.2310450E+00  0.1238807E+00 -0.1563761E+01 -0.8715646E-03  0.1238777E+00
  0.3263390E+01  0.1640620E+02 -0.2310450E+00  0.8686849E-01 -0.1653068E+01  0.7138766E-02  0.8657467E-01
  0.1639590E+01  0.1664710E+02 -0.2310450E+00  0.3630502E-01 -0.2116891E+01  0.1885515E-01  0.3102479E-01
 -0.7311870E-06  0.1672760E+02 -0.2310450E+00  0.3650365E-01  0.2544821E+01  0.3019415E-01 -0.2051415E-01
 -0.1639590E+01  0.1664710E+02 -0.2310450E+00  0.7566345E-01  0.2128580E+01  0.4004923E-01 -0.6419516E-01
 -0.3263390E+01  0.1640620E+02 -0.2310450E+00  0.1107566E+00  0.2016924E+01  0.4778875E-01 -0.9991630E-01
 -0.4855770E+01  0.1600730E+02 -0.2310450E+00  0.1305753E+00  0.1977975E+01  0.5171050E-01 -0.1198997E+00
 -0.6401380E+01  0.1545430E+02 -0.2310450E+00  0.1413950E+00  0.1959994E+01  0.5365184E-01 -0.1308206E+00
 -0.7885340E+01  0.1475240E+02 -0.2310450E+00  0.1477687E+00  0.1950437E+01  0.5476117E-01 -0.1372472E+00
 -0.9293360E+01  0.1390850E+02 -0.2310450E+00  0.1505859E+00  0.1946041E+01  0.5518974E-01 -0.1401078E+00
 -0.1061190E+02  0.1293060E+02 -0.2310450E+00  0.1530182E+00  0.1942538E+01  0.5558212E-01 -0.1425664E+00
 -0.1182820E+02  0.1182820E+02 -0.2310450E+00  0.1545490E+00  0.1939669E+01  0.5572488E-01 -0.1441531E+00
 -0.1293060E+02  0.1061190E+02 -0.2310450E+00  0.1552977E+00  0.1937694E+01  0.5570856E-01 -0.1449618E+00
 -0.1390850E+02  0.9293360E+01 -0.2310450E+00  0.1560585E+00  0.1935408E+01  0.5564834E-01 -0.1457996E+00
 -0.1475240E+02  0.7885330E+01 -0.2310450E+00  0.1568795E+00  0.1932555E+01  0.5552273E-01 -0.1467256E+00
 -0.1545430E+02  0.6401370E+01 -0.2310450E+00  0.1563073E+00  0.1930598E+01  0.5503406E-01 -0.1462984E+00
 -0.1600730E+02  0.4855770E+01 -0.2310450E+00  0.1538469E+00  0.1930453E+01  0.5414695E-01 -0.1440035E+00
 -0.1640620E+02  0.3263390E+01 -0.2310450E+00  0.1512357E+00  0.1929859E+01  0.5314372E-01 -0.1415909E+00
 -0.1664710E+02  0.1639590E+01 -0.2310450E+00  0.1488174E+00  0.1928188E+01  0.5206114E-01 -0.1394140E+00
 -0.1672760E+02 -0.1462370E-05 -0.2310450E+00  0.1467341E+00  0.1925159E+01  0.5091575E-01 -0.1376172E+00
 -0.1664710E+02 -0.1639590E+01 -0.2310450E+00  0.1452028E+00  0.1919617E+01  0.4962880E-01 -0.1364581E+00
 -0.1640620E+02 -0.3263400E+01 -0.2310450E+00  0.1442168E+00  0.1910766E+01  0.4809030E-01 -0.1359625E+00
 -0.1600730E+02 -0.4855770E+01 -0.2310450E+00  0.1434280E+00  0.1899572E+01  0.4631074E-01 -0.1357457E+00
 -0.1545430E+02 -0.6401380E+01 -0.2310450E+00  0.1423606E+00  0.1887334E+01  0.4431373E-01 -0.1352879E+00
 -0.1475240E+02 -0.7885340E+01 -0.2310450E+00  0.1392042E+00  0.1878639E+01  0.4217931E-01 -0.1326602E+00
 -0.1390850E+02 -0.9293360E+01 -0.2310450E+00  0.1343041E+00  0.1873070E+01  0.3998116E-01 -0.1282151E+00
 -0.1293060E+02 -0.1061190E+02 -0.2310450E+00  0.1293557E+00  0.1865968E+01  0.3763015E-01 -0.1237613E+00
 -0.1182820E+02 -0.1182820E+02 -0.2310450E+00  0.1242874E+00  0.1857266E+01  0.3511963E-01 -0.1192224E+00
 -0.1061190E+02 -0.1293060E+02 -0.2310450E+00  0.1180110E+00  0.1849876E+01  0.3250865E-01 -0.1134451E+00
 -0.9293350E+01 -0.1390850E+02 -0.2310450E+00  0.1096884E+00  0.1846550E+01  0.2986516E-01 -0.1055444E+00
 -0.7885340E+01 -0.1475240E+02 -0.2310450E+00  0.1001599E+00  0.1845253E+01  0.2714570E-01 -0.9641118E-01
 -0.6401370E+01 -0.1545430E+02 -0.2310450E+00  0.8547850E-01  0.1863616E+01  0.2467359E-01 -0.8184002E-01
 -0.4855760E+01 -0.1600730E+02 -0.2310450E+00  0.6387970E-01  0.1932163E+01  0.2258484E-01 -0.5975400E-01
 -0.3263390E+01 -0.1640620E+02 -0.2310450E+00  0.3124312E-01  0.2331433E+01  0.2153847E-01 -0.2263243E-01
 -0.1639590E+01 -0.1664710E+02 -0.2310450E+00  0.3938684E-01 -0.2160865E+01  0.2191554E-01  0.3272663E-01
  0.1994750E-06 -0.1672760E+02 -0.2310450E+00  0.8698447E-01 -0.1824248E+01  0.2181106E-01  0.8420556E-01
  0.1639600E+01 -0.1664710E+02 -0.2310450E+00  0.1296142E+00 -0.1729406E+01  0.2047203E-01  0.1279872E+00
  0.3263390E+01 -0.1640620E+02 -0.2310450E+00  0.1648735E+00 -0.1677378E+01  0.1753923E-01  0.1639379E+00
  0.4855770E+01 -0.1600730E+02 -0.2310450E+00  0.1846017E+00 -0.1642113E+01  0.1315396E-01  0.1841324E+00
  0.6401380E+01 -0.1545430E+02 -0.2310450E+00  0.1953876E+00 -0.1614374E+01  0.8511928E-02  0.1952021E+00
  0.7885340E+01 -0.1475240E+02 -0.2310450E+00  0.2017825E+00 -0.1590847E+01  0.4045530E-02  0.2017419E+00
  0.9293360E+01 -0.1390850E+02 -0.2310450E+00  0.2046902E+00 -0.1569639E+01 -0.2368691E-03  0.2046900E+00
  0.1061190E+02 -0.1293060E+02 -0.2310450E+00  0.2072596E+00 -0.1550908E+01 -0.4121857E-02  0.2072186E+00
  0.1182820E+02 -0.1182820E+02 -0.2310450E+00  0.2089985E+00 -0.1533978E+01 -0.7693227E-02  0.2088569E+00
  0.1293060E+02 -0.1061190E+02 -0.2310450E+00  0.2099879E+00 -0.1518852E+01 -0.1090288E-01  0.2097047E+00
  0.1390850E+02 -0.9293360E+01 -0.2310450E+00  0.2110194E+00 -0.1505703E+01 -0.1372621E-01  0.2105725E+00
  0.1475240E+02 -0.7885330E+01 -0.2310450E+00  0.2121374E+00 -0.1494477E+01 -0.1617444E-01  0.2115199E+00
  0.1545430E+02 -0.6401380E+01 -0.2310450E+00  0.2118961E+00 -0.1484200E+01 -0.1832645E-01  0.2111021E+00
  0.1600730E+02 -0.4855760E+01 -0.2310450E+00  0.2097800E+00 -0.1474596E+01 -0.2014976E-01  0.2088101E+00
  0.1640620E+02 -0.3263390E+01 -0.2310450E+00  0.2075138E+00 -0.1466655E+01 -0.2157177E-01  0.2063895E+00
  0.1664710E+02 -0.1639590E+01 -0.2310450E+00  0.2054442E+00 -0.1460590E+01 -0.2259546E-01  0.2041978E+00
  0.1672760E+02  0.0000000E+00 -0.4105000E+00  0.2028017E+00 -0.1456527E+01 -0.2312358E-01  0.2014791E+00
  0.1664710E+02  0.1639590E+01 -0.4105000E+00  0.2016624E+00 -0.1454146E+01 -0.2347071E-01  0.2002919E+00
  0.1640620E+02  0.3263390E+01 -0.4105000E+00  0.2011254E+00 -0.1453078E+01 -0.2362154E-01  0.1997335E+00
  0.1600730E+02  0.4855770E+01 -0.4105000E+00  0.2008187E+00 -0.1453236E+01 -0.2355394E-01  0.1994327E+00
  0.1545430E+02  0.6401380E+01 -0.4105000E+00  0.2002369E+00 -0.1454564E+01 -0.2322169E-01  0.1988858E+00
  0.1475240E+02  0.7885340E+01 -0.4105000E+00  0.1975364E+00 -0.1457351E+01 -0.2236152E-01  0.1962666E+00
  0.1390850E+02  0.9293360E+01 -0.4105000E+00  0.1930365E+00 -0.1461939E+01 -0.2097195E-01  0.1918939E+00
  0.1293060E+02  0.1061190E+02 -0.4105000E+00  0.1884572E+00 -0.1467877E+01 -0.1936175E-01  0.1874600E+00
  0.1182820E+02  0.1182820E+02 -0.4105000E+00  0.1837213E+00 -0.1475107E+01 -0.1755336E-01  0.1828808E+00
  0.1061190E+02  0.1293060E+02 -0.4105000E+00  0.1777293E+00 -0.1483999E+01 -0.1540704E-01  0.1770602E+00
  0.9293360E+01  0.1390850E+02 -0.4105000E+00  0.1696846E+00 -0.1495127E+01 -0.1282762E-01  0.1691990E+00
  0.7885330E+01  0.1475240E+02 -0.4105000E+00  0.1602669E+00 -0.1508631E+01 -0.9956680E-02  0.1599573E+00
  0.6401380E+01  0.1545430E+02 -0.4105000E+00  0.1455495E+00 -0.1528972E+01 -0.6085774E-02  0.1454222E+00
  0.4855770E+01  0.1600730E+02 -0.4105000E+00  0.1233207E+00 -0.1563698E+01 -0.8753428E-03  0.1233176E+00
  0.3263390E+01  0.1640620E+02 -0.4105000E+00  0.8639612E-01 -0.1653226E+01  0.7113502E-02  0.8610278E-01
  0.1639590E+01  0.1664710E+02 -0.4105000E+00  0.3607410E-01 -0.2118207E+01  0.1877578E-01  0.3080277E-01
 -0.7311870E-06  0.1672760E+02 -0.4105000E+00  0.3636089E-01  0.2543791E+01  0.3005500E-01 -0.2046488E-01
 -0.1639590E+01  0.1664710E+02 -0.4105000E+00  0.7531425E-01  0.2128464E+01  0.3985699E-01 -0.6390350E-01
 -0.3263390E+01  0.1640620E+02 -0.4105000E+00  0.1102364E+00  0.2016856E+01  0.4755759E-01 -0.9945020E-01
 -0.4855770E+01  0.1600730E+02 -0.4105000E+00  0.1300248E+00  0.1977821E+01  0.5147403E-01 -0.1194022E+00
 -0.6401380E+01  0.1545430E+02 -0.4105000E+00  0.1407749E+00  0.1959899E+01  0.5340412E-01 -0.1302520E+00
 -0.7885340E+01  0.1475240E+02 -0.4105000E+00  0.1470590E+00  0.1950409E+01  0.5449433E-01 -0.1365896E+00
 -0.9293360E+01  0.1390850E+02 -0.4105000E+00  0.1499282E+00  0.1945939E+01  0.5493444E-01 -0.1395015E+00
 -0.1061190E+02  0.1293060E+02 -0.4105000E+00  0.1523049E+00  0.1942472E+01  0.5531362E-01 -0.1419055E+00
 -0.1182820E+02  0.1182820E+02 -0.4105000E+00  0.1538347E+00  0.1939619E+01  0.5546007E-01 -0.1434897E+00