 VARIABLES="X" "Y" "Z" "abs(eta) (m)" "angle(phi) (rad)" "PRE1" "PRE2"
ZONE N=   3200 ,E =    3136 ,F=FEPOINT,ET=QUADRILATERAL
  0.1672760E+02  0.0000000E+00  0.0000000E+00  0.5238710E+00 -0.8926726E+00 -0.3286416E+00  0.4079652E+00
  0.1664710E+02  0.1639590E+01  0.0000000E+00  0.5221888E+00 -0.8891415E+00 -0.3290202E+00  0.4054959E+00
  0.1640620E+02  0.3263390E+01  0.0000000E+00  0.5186104E+00 -0.8884939E+00 -0.3270262E+00  0.4025054E+00
  0.1600730E+02  0.4855770E+01  0.0000000E+00  0.5150766E+00 -0.8920910E+00 -0.3233578E+00  0.4009284E+00
  0.1545430E+02  0.6401380E+01  0.0000000E+00  0.5124432E+00 -0.9005493E+00 -0.3183193E+00  0.4015855E+00
  0.1475240E+02  0.7885340E+01  0.0000000E+00  0.5092826E+00 -0.9125617E+00 -0.3115391E+00  0.4028799E+00
  0.1390850E+02  0.9293360E+01  0.0000000E+00  0.5019045E+00 -0.9261043E+00 -0.3016207E+00  0.4011647E+00
  0.1293060E+02  0.1061190E+02  0.0000000E+00  0.4862694E+00 -0.9398521E+00 -0.2868540E+00  0.3926484E+00
  0.1182820E+02  0.1182820E+02  0.0000000E+00  0.4702705E+00 -0.9574271E+00 -0.2706998E+00  0.3845464E+00
  0.1061190E+02  0.1293060E+02  0.0000000E+00  0.4520175E+00 -0.9780111E+00 -0.2525300E+00  0.3748978E+00
  0.9293360E+01  0.1390850E+02  0.0000000E+00  0.4263661E+00 -0.1000847E+01 -0.2300627E+00  0.3589697E+00
  0.7885330E+01  0.1475240E+02  0.0000000E+00  0.3984078E+00 -0.1027175E+01 -0.2060720E+00  0.3409738E+00
  0.6401380E+01  0.1545430E+02  0.0000000E+00  0.3599483E+00 -0.1057407E+01 -0.1767822E+00  0.3135456E+00
  0.4855770E+01  0.1600730E+02  0.0000000E+00  0.3029831E+00 -0.1095363E+01 -0.1386826E+00  0.2693805E+00
  0.3263390E+01  0.1640620E+02  0.0000000E+00  0.2157338E+00 -0.1156883E+01 -0.8676714E-01  0.1975159E+00
  0.1639590E+01  0.1664710E+02  0.0000000E+00  0.9149636E-01 -0.1404720E+01 -0.1512558E-01  0.9023747E-01
 -0.7311870E-06  0.1672760E+02  0.0000000E+00  0.5581926E-01  0.2986900E+01  0.5515272E-01 -0.8600435E-02
 -0.1639590E+01  0.1664710E+02  0.0000000E+00  0.1526632E+00  0.2480817E+01  0.1205301E+00 -0.9369393E-01
 -0.3263390E+01  0.1640620E+02  0.0000000E+00  0.2451647E+00  0.2391407E+01  0.1793533E+00 -0.1671470E+00
 -0.4855770E+01  0.1600730E+02  0.0000000E+00  0.3023526E+00  0.2375722E+01  0.2179294E+00 -0.2095802E+00
 -0.6401380E+01  0.1545430E+02  0.0000000E+00  0.3395865E+00  0.2377080E+01  0.2450863E+00 -0.2350568E+00
 -0.7885340E+01  0.1475240E+02  0.0000000E+00  0.3630973E+00  0.2387667E+01  0.2647007E+00 -0.2485421E+00
 -0.9293360E+01  0.1390850E+02  0.0000000E+00  0.3794000E+00  0.2401042E+01  0.2800341E+00 -0.2559792E+00
 -0.1061190E+02  0.1293060E+02  0.0000000E+00  0.3950762E+00  0.2411458E+01  0.2943652E+00 -0.2635040E+00
 -0.1182820E+02  0.1182820E+02  0.0000000E+00  0.4049427E+00  0.2423635E+01  0.3049830E+00 -0.2663907E+00
 -0.1293060E+02  0.1061190E+02  0.0000000E+00  0.4130428E+00  0.2434609E+01  0.3140465E+00 -0.2682892E+00
 -0.1390850E+02  0.9293360E+01  0.0000000E+00  0.4206547E+00  0.2442885E+01  0.3220843E+00 -0.2705773E+00
 -0.1475240E+02  0.7885330E+01  0.0000000E+00  0.4214579E+00  0.2454417E+01  0.3258041E+00 -0.2673545E+00
 -0.1545430E+02  0.6401370E+01  0.0000000E+00  0.4188815E+00  0.2466094E+01  0.3268931E+00 -0.2619210E+00
 -0.1600730E+02  0.4855770E+01  0.0000000E+00  0.4159176E+00  0.2474044E+01  0.3266374E+00 -0.2574790E+00
 -0.1640620E+02  0.3263390E+01  0.0000000E+00  0.4135444E+00  0.2476250E+01  0.3253376E+00 -0.2552927E+00
 -0.1664710E+02  0.1639590E+01  0.0000000E+00  0.4108954E+00  0.2474370E+01  0.3227762E+00 -0.2542648E+00
 -0.1672760E+02 -0.1462370E-05  0.0000000E+00  0.4066641E+00  0.2470307E+01  0.3184273E+00 -0.2529422E+00
 -0.1664710E+02 -0.1639590E+01  0.0000000E+00  0.4007233E+00  0.2464487E+01  0.3123196E+00 -0.2510691E+00
 -0.1640620E+02 -0.3263400E+01  0.0000000E+00  0.3931724E+00  0.2456752E+01  0.3045197E+00 -0.2487011E+00
 -0.1600730E+02 -0.4855770E+01  0.0000000E+00  0.3852200E+00  0.2443275E+01  0.2950495E+00 -0.2476696E+00
 -0.1545430E+02 -0.6401380E+01  0.0000000E+00  0.3775737E+00  0.2422301E+01  0.2840385E+00 -0.2487651E+00
 -0.1475240E+02 -0.7885340E+01  0.0000000E+00  0.3692188E+00  0.2396280E+01  0.2713300E+00 -0.2504048E+00
 -0.1390850E+02 -0.9293360E+01  0.0000000E+00  0.3576283E+00  0.2371405E+01  0.2566984E+00 -0.2490060E+00
 -0.1293060E+02 -0.1061190E+02  0.0000000E+00  0.3399728E+00  0.2354354E+01  0.2399542E+00 -0.2408391E+00
 -0.1182820E+02 -0.1182820E+02  0.0000000E+00  0.3217964E+00  0.2331760E+01  0.2219171E+00 -0.2330358E+00
 -0.1061190E+02 -0.1293060E+02  0.0000000E+00  0.3016537E+00  0.2306372E+01  0.2024138E+00 -0.2236596E+00
 -0.9293350E+01 -0.1390850E+02  0.0000000E+00  0.2758476E+00  0.2287306E+01  0.1811648E+00 -0.2080173E+00
 -0.7885340E+01 -0.1475240E+02  0.0000000E+00  0.2477206E+00  0.2265454E+01  0.1585715E+00 -0.1903170E+00
 -0.6401370E+01 -0.1545430E+02  0.0000000E+00  0.2114601E+00  0.2259352E+01  0.1343665E+00 -0.1632820E+00
 -0.4855760E+01 -0.1600730E+02  0.0000000E+00  0.1611713E+00  0.2304800E+01  0.1079602E+00 -0.1196695E+00
 -0.3263390E+01 -0.1640620E+02  0.0000000E+00  0.9302588E-01  0.2590566E+01  0.7925687E-01 -0.4870486E-01
 -0.1639590E+01 -0.1664710E+02  0.0000000E+00  0.7471879E-01 -0.2258683E+01  0.4743942E-01  0.5772693E-01
  0.1994750E-06 -0.1672760E+02  0.0000000E+00  0.1572992E+00 -0.1657538E+01  0.1362734E-01  0.1567078E+00
  0.1639600E+01 -0.1664710E+02  0.0000000E+00  0.2443408E+00 -0.1472836E+01 -0.2389740E-01  0.2431694E+00
  0.3263390E+01 -0.1640620E+02  0.0000000E+00  0.3255151E+00 -0.1368462E+01 -0.6541435E-01  0.3188747E+00
  0.4855770E+01 -0.1600730E+02  0.0000000E+00  0.3778511E+00 -0.1292206E+01 -0.1039094E+00  0.3632827E+00
  0.6401380E+01 -0.1545430E+02  0.0000000E+00  0.4137184E+00 -0.1231617E+01 -0.1376498E+00  0.3901480E+00
  0.7885340E+01 -0.1475240E+02  0.0000000E+00  0.4379860E+00 -0.1178210E+01 -0.1675643E+00  0.4046652E+00
  0.9293360E+01 -0.1390850E+02  0.0000000E+00  0.4563211E+00 -0.1130623E+01 -0.1944367E+00  0.4128235E+00
  0.1061190E+02 -0.1293060E+02  0.0000000E+00  0.4743708E+00 -0.1091013E+01 -0.2189634E+00  0.4208120E+00
  0.1182820E+02 -0.1182820E+02  0.0000000E+00  0.4875500E+00 -0.1054302E+01 -0.2407693E+00  0.4239518E+00
  0.1293060E+02 -0.1061190E+02  0.0000000E+00  0.4991414E+00 -0.1022334E+01 -0.2602402E+00  0.4259309E+00
  0.1390850E+02 -0.9293360E+01  0.0000000E+00  0.5103226E+00 -0.9954575E+00 -0.2776763E+00  0.4281648E+00
  0.1475240E+02 -0.7885330E+01  0.0000000E+00  0.5155324E+00 -0.9683008E+00 -0.2921524E+00  0.4247595E+00
  0.1545430E+02 -0.6401380E+01  0.0000000E+00  0.5176167E+00 -0.9432387E+00 -0.3039287E+00  0.4189921E+00
  0.1600730E+02 -0.4855760E+01  0.0000000E+00  0.5193009E+00 -0.9230204E+00 -0.3133537E+00  0.4141050E+00
  0.1640620E+02 -0.3263390E+01  0.0000000E+00  0.5216438E+00 -0.9086688E+00 -0.3207046E+00  0.4114132E+00
  0.1664710E+02 -0.1639590E+01  0.0000000E+00  0.5236037E+00 -0.8990571E+00 -0.3258639E+00  0.4098458E+00
  0.1672760E+02  0.0000000E+00 -0.2568960E-01  0.5232015E+00 -0.8927052E+00 -0.3282082E+00  0.4074544E+00
  0.1664710E+02  0.1639590E+01 -0.2568960E-01  0.5215216E+00 -0.8891783E+00 -0.3285848E+00  0.4049898E+00
  0.1640620E+02  0.3263390E+01 -0.2568960E-01  0.5179529E+00 -0.8885255E+00 -0.3265989E+00  0.4020055E+00
  0.1600730E+02  0.4855770E+01 -0.2568960E-01  0.5144161E+00 -0.8921225E+00 -0.3229305E+00  0.4004245E+00
  0.1545430E+02  0.6401380E+01 -0.2568960E-01  0.5117660E+00 -0.9005666E+00 -0.3178916E+00  0.4010602E+00
  0.1475240E+02  0.7885340E+01 -0.2568960E-01  0.5085822E+00 -0.9125651E+00 -0.3111092E+00  0.4023269E+00
  0.1390850E+02  0.9293360E+01 -0.2568960E-01  0.5011981E+00 -0.9261085E+00 -0.3011944E+00  0.4006013E+00
  0.1293060E+02  0.1061190E+02 -0.2568960E-01  0.4856165E+00 -0.9398662E+00 -0.2864633E+00  0.3921252E+00
  0.1182820E+02  0.1182820E+02 -0.2568960E-01  0.4696454E+00 -0.9574408E+00 -0.2703348E+00  0.3840390E+00
  0.1061190E+02  0.1293060E+02 -0.2568960E-01  0.4514097E+00 -0.9780214E+00 -0.2521867E+00  0.3743964E+00
  0.9293360E+01  0.1390850E+02 -0.2568960E-01  0.4258226E+00 -0.1000856E+01 -0.2297661E+00  0.3585142E+00
  0.7885330E+01  0.1475240E+02 -0.2568960E-01  0.3978904E+00 -0.1027181E+01 -0.2058021E+00  0.3405323E+00
  0.6401380E+01  0.1545430E+02 -0.2568960E-01  0.3594836E+00 -0.1057423E+01 -0.1765492E+00  0.3131435E+00
  0.4855770E+01  0.1600730E+02 -0.2568960E-01  0.3026223E+00 -0.1095365E+01 -0.1385168E+00  0.2690602E+00
  0.3263390E+01  0.1640620E+02 -0.2568960E-01  0.2154462E+00 -0.1156891E+01 -0.8664979E-01  0.1972533E+00
  0.1639590E+01  0.1664710E+02 -0.2568960E-01  0.9136286E-01 -0.1404699E+01 -0.1510542E-01  0.9010548E-01
 -0.7311870E-06  0.1672760E+02 -0.2568960E-01  0.5575753E-01  0.2986522E+01  0.5508847E-01 -0.8611753E-02
 -0.1639590E+01  0.1664710E+02 -0.2568960E-01  0.1524995E+00  0.2480684E+01  0.1203884E+00 -0.9360944E-01
 -0.3263390E+01  0.1640620E+02 -0.2568960E-01  0.2448577E+00  0.2391373E+01  0.1791231E+00 -0.1669438E+00
 -0.4855770E+01  0.1600730E+02 -0.2568960E-01  0.3020023E+00  0.2375664E+01  0.2176648E+00 -0.2093499E+00
 -0.6401380E+01  0.1545430E+02 -0.2568960E-01  0.3391544E+00  0.2377050E+01  0.2447674E+00 -0.2347650E+00
 -0.7885340E+01  0.1475240E+02 -0.2568960E-01  0.3626350E+00  0.2387643E+01  0.2643576E+00 -0.2482322E+00
 -0.9293360E+01  0.1390850E+02 -0.2568960E-01  0.3789242E+00  0.2401009E+01  0.2796744E+00 -0.2556674E+00
 -0.1061190E+02  0.1293060E+02 -0.2568960E-01  0.3945540E+00  0.2411448E+01  0.2939736E+00 -0.2631585E+00
 -0.1182820E+02  0.1182820E+02 -0.2568960E-01  0.4044113E+00  0.2423620E+01  0.3045788E+00 -0.2660457E+00
 -0.1293060E+02  0.1061190E+02 -0.2568960E-01  0.4124951E+00  0.2434605E+01  0.3136291E+00 -0.2679347E+00
 -0.1390850E+02  0.9293360E+01 -0.2568960E-01  0.4200702E+00  0.2442898E+01  0.3216404E+00 -0.2701970E+00
 -0.1475240E+02  0.7885330E+01 -0.2568960E-01  0.4208846E+00  0.2454419E+01  0.3253614E+00 -0.2669903E+00
 -0.1545430E+02  0.6401370E+01 -0.2568960E-01  0.4183363E+00  0.2466067E+01  0.3264606E+00 -0.2615890E+00
 -0.1600730E+02  0.4855770E+01 -0.2568960E-01  0.4153951E+00  0.2473992E+01  0.3262136E+00 -0.2571726E+00
 -0.1640620E+02  0.3263390E+01 -0.2568960E-01  0.4130277E+00  0.2476188E+01  0.3249154E+00 -0.2549939E+00
 -0.1664710E+02  0.1639590E+01 -0.2568960E-01  0.4103823E+00  0.2474307E+01  0.3223571E+00 -0.2539675E+00
 -0.1672760E+02 -0.1462370E-05 -0.2568960E-01  0.4061531E+00  0.2470238E+01  0.3180095E+00 -0.2526465E+00
 -0.1664710E+02 -0.1639590E+01 -0.2568960E-01  0.4002207E+00  0.2464421E+01  0.3119112E+00 -0.2507748E+00
 -0.1640620E+02 -0.3263400E+01 -0.2568960E-01  0.3926809E+00  0.2456674E+01  0.3041198E+00 -0.2484138E+00
 -0.1600730E+02 -0.4855770E+01 -0.2568960E-01  0.3847350E+00  0.2443206E+01  0.2946610E+00 -0.2473782E+00
 -0.1545430E+02 -0.6401380E+01 -0.2568960E-01  0.3770819E+00  0.2422268E+01  0.2836602E+00 -0.2484505E+00
 -0.1475240E+02 -0.7885340E+01 -0.2568960E-01  0.3687159E+00  0.2396289E+01  0.2709626E+00 -0.2500614E+00
 -0.1390850E+02 -0.9293360E+01 -0.2568960E-01  0.3571320E+00  0.2371432E+01  0.2563488E+00 -0.2486534E+00
 -0.1293060E+02 -0.1061190E+02 -0.2568960E-01  0.3395221E+00  0.2354333E+01  0.2396310E+00 -0.2405249E+00
 -0.1182820E+02 -0.1182820E+02 -0.2568960E-01  0.3213761E+00  0.2331731E+01  0.2216204E+00 -0.2327380E+00
 -0.1061190E+02 -0.1293060E+02 -0.2568960E-01  0.3012538E+00  0.2306347E+01  0.2021400E+00 -0.2233681E+00
 -0.9293350E+01 -0.1390850E+02 -0.2568960E-01  0.2755052E+00  0.2287242E+01  0.1809266E+00 -0.2077708E+00
 -0.7885340E+01 -0.1475240E+02 -0.2568960E-01  0.2474073E+00  0.2265413E+01  0.1583631E+00 -0.1900828E+00
 -0.6401370E+01 -0.1545430E+02 -0.2568960E-01  0.2111968E+00  0.2259288E+01  0.1341888E+00 -0.1630873E+00
 -0.4855760E+01 -0.1600730E+02 -0.2568960E-01  0.1609965E+00  0.2304644E+01  0.1078245E+00 -0.1195565E+00
 -0.3263390E+01 -0.1640620E+02 -0.2568960E-01  0.9291212E-01  0.2590529E+01  0.7915817E-01 -0.4864818E-01
 -0.1639590E+01 -0.1664710E+02 -0.2568960E-01  0.7462727E-01 -0.2258765E+01  0.4738605E-01  0.5765234E-01
  0.1994750E-06 -0.1672760E+02 -0.2568960E-01  0.1571042E+00 -0.1657596E+01  0.1361945E-01  0.1565127E+00
  0.1639600E+01 -0.1664710E+02 -0.2568960E-01  0.2440449E+00 -0.1472877E+01 -0.2385848E-01  0.2428759E+00
  0.3263390E+01 -0.1640620E+02 -0.2568960E-01  0.3250926E+00 -0.1368484E+01 -0.6532260E-01  0.3184622E+00
  0.4855770E+01 -0.1600730E+02 -0.2568960E-01  0.3773876E+00 -0.1292240E+01 -0.1037697E+00  0.3628405E+00
  0.6401380E+01 -0.1545430E+02 -0.2568960E-01  0.4131788E+00 -0.1231641E+01 -0.1374606E+00  0.3896425E+00
  0.7885340E+01 -0.1475240E+02 -0.2568960E-01  0.4374145E+00 -0.1178224E+01 -0.1673399E+00  0.4041396E+00
  0.9293360E+01 -0.1390850E+02 -0.2568960E-01  0.4557305E+00 -0.1130654E+01 -0.1941722E+00  0.4122953E+00
  0.1061190E+02 -0.1293060E+02 -0.2568960E-01  0.4737340E+00 -0.1091025E+01 -0.2186642E+00  0.4202498E+00
  0.1182820E+02 -0.1182820E+02 -0.2568960E-01  0.4868984E+00 -0.1054317E+01 -0.2404409E+00  0.4233890E+00
  0.1293060E+02 -0.1061190E+02 -0.2568960E-01  0.4984671E+00 -0.1022347E+01 -0.2598832E+00  0.4253589E+00
  0.1390850E+02 -0.9293360E+01 -0.2568960E-01  0.5096126E+00 -0.9954512E+00 -0.2772927E+00  0.4275673E+00
  0.1475240E+02 -0.7885330E+01 -0.2568960E-01  0.5148283E+00 -0.9682982E+00 -0.2917545E+00  0.4241786E+00
  0.1545430E+02 -0.6401380E+01 -0.2568960E-01  0.5169317E+00 -0.9432617E+00 -0.3035169E+00  0.4184446E+00
  0.1600730E+02 -0.4855760E+01 -0.2568960E-01  0.5186311E+00 -0.9230534E+00 -0.3129358E+00  0.4135812E+00
  0.1640620E+02 -0.3263390E+01 -0.2568960E-01  0.5209755E+00 -0.9087110E+00 -0.3202765E+00  0.4108996E+00
  0.1664710E+02 -0.1639590E+01 -0.2568960E-01  0.5229337E+00 -0.8990973E+00 -0.3254305E+00  0.4093345E+00
  0.1672760E+02  0.0000000E+00 -0.1027320E+00  0.5212445E+00 -0.8928387E+00 -0.3269265E+00  0.4059741E+00
  0.1664710E+02  0.1639590E+01 -0.1027320E+00  0.5195773E+00 -0.8893096E+00 -0.3273069E+00  0.4035230E+00
  0.1640620E+02  0.3263390E+01 -0.1027320E+00  0.5160321E+00 -0.8886566E+00 -0.3253352E+00  0.4005572E+00
  0.1600730E+02  0.4855770E+01 -0.1027320E+00  0.5124906E+00 -0.8922315E+00 -0.3216783E+00  0.3989608E+00
  0.1545430E+02  0.6401380E+01 -0.1027320E+00  0.5097842E+00 -0.9006411E+00 -0.3166308E+00  0.3995307E+00
  0.1475240E+02  0.7885340E+01 -0.1027320E+00  0.5065232E+00 -0.9125933E+00 -0.3098384E+00  0.4007068E+00
  0.1390850E+02  0.9293360E+01 -0.1027320E+00  0.4991291E+00 -0.9261159E+00 -0.2999481E+00  0.3989498E+00
  0.1293060E+02  0.1061190E+02 -0.1027320E+00  0.4836979E+00 -0.9399067E+00 -0.2853156E+00  0.3905875E+00
  0.1182820E+02  0.1182820E+02 -0.1027320E+00  0.4678069E+00 -0.9574803E+00 -0.2692614E+00  0.3825462E+00
  0.1061190E+02  0.1293060E+02 -0.1027320E+00  0.4496147E+00 -0.9780496E+00 -0.2511734E+00  0.3729147E+00
  0.9293360E+01  0.1390850E+02 -0.1027320E+00  0.4242089E+00 -0.1000893E+01 -0.2288820E+00  0.3571641E+00
  0.7885330E+01  0.1475240E+02 -0.1027320E+00  0.3963470E+00 -0.1027209E+01 -0.2049946E+00  0.3392170E+00
  0.6401380E+01  0.1545430E+02 -0.1027320E+00  0.3581016E+00 -0.1057444E+01 -0.1758639E+00  0.3119434E+00
  0.4855770E+01  0.1600730E+02 -0.1027320E+00  0.3015399E+00 -0.1095363E+01 -0.1380221E+00  0.2680974E+00
  0.3263390E+01  0.1640620E+02 -0.1027320E+00  0.2146117E+00 -0.1156887E+01 -0.8631506E-01  0.1964890E+00
  0.1639590E+01  0.1664710E+02 -0.1027320E+00  0.9097230E-01 -0.1404650E+01 -0.1504527E-01  0.8971956E-01
 -0.7311870E-06  0.1672760E+02 -0.1027320E+00  0.5556624E-01  0.2985511E+01  0.5489077E-01 -0.8637683E-02
 -0.1639590E+01  0.1664710E+02 -0.1027320E+00  0.1520025E+00  0.2480301E+01  0.1199603E+00 -0.9335030E-01
 -0.3263390E+01  0.1640620E+02 -0.1027320E+00  0.2439538E+00  0.2391243E+01  0.1784400E+00 -0.1663509E+00
 -0.4855770E+01  0.1600730E+02 -0.1027320E+00  0.3009502E+00  0.2375493E+01  0.2168708E+00 -0.2086577E+00
 -0.6401380E+01  0.1545430E+02 -0.1027320E+00  0.3378718E+00  0.2376970E+01  0.2438230E+00 -0.2338968E+00
 -0.7885340E+01  0.1475240E+02 -0.1027320E+00  0.3612574E+00  0.2387550E+01  0.2633303E+00 -0.2473137E+00
 -0.9293360E+01  0.1390850E+02 -0.1027320E+00  0.3775137E+00  0.2400884E+01  0.2786016E+00 -0.2547504E+00
 -0.1061190E+02  0.1293060E+02 -0.1027320E+00  0.3930100E+00  0.2411384E+01  0.2928062E+00 -0.2621476E+00
 -0.1182820E+02  0.1182820E+02 -0.1027320E+00  0.4028428E+00  0.2423548E+01  0.3033785E+00 -0.2650355E+00
 -0.1293060E+02  0.1061190E+02 -0.1027320E+00  0.4108759E+00  0.2434543E+01  0.3123814E+00 -0.2669023E+00
 -0.1390850E+02  0.9293360E+01 -0.1027320E+00  0.4183493E+00  0.2442888E+01  0.3203202E+00 -0.2690932E+00
 -0.1475240E+02  0.7885330E+01 -0.1027320E+00  0.4191993E+00  0.2454366E+01  0.3240445E+00 -0.2659384E+00
 -0.1545430E+02  0.6401370E+01 -0.1027320E+00  0.4167386E+00  0.2465921E+01  0.3251758E+00 -0.2606372E+00
 -0.1600730E+02  0.4855770E+01 -0.1027320E+00  0.4138632E+00  0.2473767E+01  0.3249530E+00 -0.2562971E+00
 -0.1640620E+02  0.3263390E+01 -0.1027320E+00  0.4115208E+00  0.2475934E+01  0.3236654E+00 -0.2541458E+00
 -0.1664710E+02  0.1639590E+01 -0.1027320E+00  0.4088803E+00  0.2474050E+01  0.3211123E+00 -0.2531205E+00
 -0.1672760E+02 -0.1462370E-05 -0.1027320E+00  0.4046665E+00  0.2469975E+01  0.3167796E+00 -0.2518049E+00
 -0.1664710E+02 -0.1639590E+01 -0.1027320E+00  0.3987572E+00  0.2464137E+01  0.3106996E+00 -0.2499461E+00
 -0.1640620E+02 -0.3263400E+01 -0.1027320E+00  0.3912468E+00  0.2456374E+01  0.3029348E+00 -0.2475976E+00
 -0.1600730E+02 -0.4855770E+01 -0.1027320E+00  0.3833145E+00  0.2442933E+01  0.2935059E+00 -0.2465447E+00
 -0.1545430E+02 -0.6401380E+01 -0.1027320E+00  0.3756450E+00  0.2422101E+01  0.2825381E+00 -0.2475509E+00
 -0.1475240E+02 -0.7885340E+01 -0.1027320E+00  0.3672453E+00  0.2396266E+01  0.2698762E+00 -0.2490702E+00
 -0.1390850E+02 -0.9293360E+01 -0.1027320E+00  0.3556778E+00  0.2371482E+01  0.2553175E+00 -0.2476281E+00
 -0.1293060E+02 -0.1061190E+02 -0.1027320E+00  0.3381994E+00  0.2354229E+01  0.2386725E+00 -0.2396128E+00
 -0.1182820E+02 -0.1182820E+02 -0.1027320E+00  0.3201365E+00  0.2331601E+01  0.2207356E+00 -0.2318688E+00
 -0.1061190E+02 -0.1293060E+02 -0.1027320E+00  0.3000772E+00  0.2306277E+01  0.2013349E+00 -0.2225097E+00
 -0.9293350E+01 -0.1390850E+02 -0.1027320E+00  0.2744879E+00  0.2287020E+01  0.1802126E+00 -0.2070435E+00
 -0.7885340E+01 -0.1475240E+02 -0.1027320E+00  0.2464742E+00  0.2265263E+01  0.1577376E+00 -0.1893895E+00
 -0.6401370E+01 -0.1545430E+02 -0.1027320E+00  0.2104135E+00  0.2259101E+01  0.1336608E+00 -0.1625074E+00
 -0.4855760E+01 -0.1600730E+02 -0.1027320E+00  0.1604650E+00  0.2304171E+01  0.1074121E+00 -0.1192127E+00
 -0.3263390E+01 -0.1640620E+02 -0.1027320E+00  0.9257804E-01  0.2590201E+01  0.7885765E-01 -0.4849912E-01
 -0.1639590E+01 -0.1664710E+02 -0.1027320E+00  0.7434444E-01 -0.2259023E+01  0.4722123E-01  0.5742169E-01
  0.1994750E-06 -0.1672760E+02 -0.1027320E+00  0.1565132E+00 -0.1657699E+01  0.1358422E-01  0.1559226E+00
  0.1639600E+01 -0.1664710E+02 -0.1027320E+00  0.2431559E+00 -0.1473028E+01 -0.2373519E-01  0.2419947E+00
  0.3263390E+01 -0.1640620E+02 -0.1027320E+00  0.3238425E+00 -0.1368540E+01 -0.6505345E-01  0.3172412E+00
  0.4855770E+01 -0.1600730E+02 -0.1027320E+00  0.3759968E+00 -0.1292340E+01 -0.1033508E+00  0.3615138E+00
  0.6401380E+01 -0.1545430E+02 -0.1027320E+00  0.4115707E+00 -0.1231705E+01 -0.1369010E+00  0.3881347E+00
  0.7885340E+01 -0.1475240E+02 -0.1027320E+00  0.4357127E+00 -0.1178290E+01 -0.1666623E+00  0.4025783E+00
  0.9293360E+01 -0.1390850E+02 -0.1027320E+00  0.4539836E+00 -0.1130745E+01 -0.1933908E+00  0.4107324E+00
  0.1061190E+02 -0.1293060E+02 -0.1027320E+00  0.4718519E+00 -0.1091071E+01 -0.2177764E+00  0.4185900E+00
  0.1182820E+02 -0.1182820E+02 -0.1027320E+00  0.4849757E+00 -0.1054373E+01 -0.2394681E+00  0.4217303E+00
  0.1293060E+02 -0.1061190E+02 -0.1027320E+00  0.4964836E+00 -0.1022389E+01 -0.2588310E+00  0.4236773E+00
  0.1390850E+02 -0.9293360E+01 -0.1027320E+00  0.5075247E+00 -0.9954424E+00 -0.2761603E+00  0.4258131E+00
  0.1475240E+02 -0.7885330E+01 -0.1027320E+00  0.5127566E+00 -0.9683201E+00 -0.2905712E+00  0.4224780E+00
  0.1545430E+02 -0.6401380E+01 -0.1027320E+00  0.5149241E+00 -0.9433495E+00 -0.3023016E+00  0.4168460E+00
  0.1600730E+02 -0.4855760E+01 -0.1027320E+00  0.5166724E+00 -0.9231866E+00 -0.3116991E+00  0.4120608E+00
  0.1640620E+02 -0.3263390E+01 -0.1027320E+00  0.5190273E+00 -0.9088558E+00 -0.3190195E+00  0.4094093E+00
  0.1664710E+02 -0.1639590E+01 -0.1027320E+00  0.5209765E+00 -0.8992369E+00 -0.3241555E+00  0.4078477E+00
  0.1672760E+02  0.0000000E+00 -0.2310450E+00  0.5179970E+00 -0.8930703E+00 -0.3247961E+00  0.4035200E+00
  0.1664710E+02  0.1639590E+01 -0.2310450E+00  0.5163521E+00 -0.8895319E+00 -0.3251860E+00  0.4010904E+00
  0.1640620E+02  0.3263390E+01 -0.2310450E+00  0.5128453E+00 -0.8888741E+00 -0.3232395E+00  0.3981539E+00
  0.1600730E+02  0.4855770E+01 -0.2310450E+00  0.5092931E+00 -0.8924172E+00 -0.3195976E+00  0.3965309E+00
  0.1545430E+02  0.6401380E+01 -0.2310450E+00  0.5064963E+00 -0.9007573E+00 -0.3145426E+00  0.3969905E+00
  0.1475240E+02  0.7885340E+01 -0.2310450E+00  0.5031072E+00 -0.9126405E+00 -0.3077300E+00  0.3980190E+00
  0.1390850E+02  0.9293360E+01 -0.2310450E+00  0.4956900E+00 -0.9261354E+00 -0.2978737E+00  0.3962068E+00
  0.1293060E+02  0.1061190E+02 -0.2310450E+00  0.4805122E+00 -0.9399744E+00 -0.2834103E+00  0.3880342E+00
  0.1182820E+02  0.1182820E+02 -0.2310450E+00  0.4647500E+00 -0.9575555E+00 -0.2674733E+00  0.3800666E+00
  0.1061190E+02  0.1293060E+02 -0.2310450E+00  0.4466360E+00 -0.9780939E+00 -0.2494929E+00  0.3704551E+00
  0.9293360E+01  0.1390850E+02 -0.2310450E+00  0.4215291E+00 -0.1000955E+01 -0.2274145E+00  0.3549218E+00
  0.7885330E+01  0.1475240E+02 -0.2310450E+00  0.3937829E+00 -0.1027262E+01 -0.2036504E+00  0.3370334E+00
  0.6401380E+01  0.1545430E+02 -0.2310450E+00  0.3557979E+00 -0.1057481E+01 -0.1747209E+00  0.3099431E+00
  0.4855770E+01  0.1600730E+02 -0.2310450E+00  0.2997377E+00 -0.1095363E+01 -0.1371971E+00  0.2664951E+00
  0.3263390E+01  0.1640620E+02 -0.2310450E+00  0.2132151E+00 -0.1156882E+01 -0.8575430E-01  0.1952099E+00
  0.1639590E+01  0.1664710E+02 -0.2310450E+00  0.9037986E-01 -0.1404403E+01 -0.1496930E-01  0.8913158E-01
 -0.7311870E-06  0.1672760E+02 -0.2310450E+00  0.5524257E-01  0.2984007E+01  0.5455806E-01 -0.8669442E-02
 -0.1639590E+01  0.1664710E+02 -0.2310450E+00  0.1511836E+00  0.2479646E+01  0.1192532E+00 -0.9292558E-01
 -0.3263390E+01  0.1640620E+02 -0.2310450E+00  0.2424414E+00  0.2391038E+01  0.1773000E+00 -0.1653557E+00
 -0.4855770E+01  0.1600730E+02 -0.2310450E+00  0.2992000E+00  0.2375197E+01  0.2155482E+00 -0.2075081E+00
 -0.6401380E+01  0.1545430E+02 -0.2310450E+00  0.3357327E+00  0.2376828E+01  0.2422464E+00 -0.2324503E+00
 -0.7885340E+01  0.1475240E+02 -0.2310450E+00  0.3589727E+00  0.2387393E+01  0.2616263E+00 -0.2457907E+00
 -0.9293360E+01  0.1390850E+02 -0.2310450E+00  0.3751723E+00  0.2400671E+01  0.2768197E+00 -0.2532293E+00
 -0.1061190E+02  0.1293060E+02 -0.2310450E+00  0.3904442E+00  0.2411269E+01  0.2908648E+00 -0.2604696E+00
 -0.1182820E+02  0.1182820E+02 -0.2310450E+00  0.4002404E+00  0.2423421E+01  0.3013851E+00 -0.2633617E+00
 -0.1293060E+02  0.1061190E+02 -0.2310450E+00  0.4081895E+00  0.2434436E+01  0.3103106E+00 -0.2651906E+00
 -0.1390850E+02  0.9293360E+01 -0.2310450E+00  0.4154957E+00  0.2442878E+01  0.3181324E+00 -0.2672611E+00
 -0.1475240E+02  0.7885330E+01 -0.2310450E+00  0.4164061E+00  0.2454278E+01  0.3218623E+00 -0.2641945E+00
 -0.1545430E+02  0.6401370E+01 -0.2310450E+00  0.4140901E+00  0.2465676E+01  0.3230458E+00 -0.2590600E+00
 -0.1600730E+02  0.4855770E+01 -0.2310450E+00  0.4113237E+00  0.2473397E+01  0.3228647E+00 -0.2548443E+00
 -0.1640620E+02  0.3263390E+01 -0.2310450E+00  0.4090261E+00  0.2475513E+01  0.3215968E+00 -0.2527407E+00
 -0.1664710E+02  0.1639590E+01 -0.2310450E+00  0.4063934E+00  0.2473622E+01  0.3190514E+00 -0.2517178E+00
 -0.1672760E+02 -0.1462370E-05 -0.2310450E+00  0.4022005E+00  0.2469535E+01  0.3147389E+00 -0.2504089E+00
 -0.1664710E+02 -0.1639590E+01 -0.2310450E+00  0.3963286E+00  0.2463673E+01  0.3086920E+00 -0.2485670E+00
 -0.1640620E+02 -0.3263400E+01 -0.2310450E+00  0.3888729E+00  0.2455877E+01  0.3009744E+00 -0.2462449E+00
 -0.1600730E+02 -0.4855770E+01 -0.2310450E+00  0.3809633E+00  0.2442492E+01  0.2915975E+00 -0.2451611E+00
 -0.1545430E+02 -0.6401380E+01 -0.2310450E+00  0.3732593E+00  0.2421836E+01  0.2806784E+00 -0.2460532E+00
 -0.1475240E+02 -0.7885340E+01 -0.2310450E+00  0.3648075E+00  0.2396243E+01  0.2680790E+00 -0.2474229E+00
 -0.1390850E+02 -0.9293360E+01 -0.2310450E+00  0.3532636E+00  0.2371566E+01  0.2536052E+00 -0.2459260E+00
 -0.1293060E+02 -0.1061190E+02 -0.2310450E+00  0.3360067E+00  0.2354073E+01  0.2370881E+00 -0.2380961E+00
 -0.1182820E+02 -0.1182820E+02 -0.2310450E+00  0.3180834E+00  0.2331410E+01  0.2192759E+00 -0.2304238E+00
 -0.1061190E+02 -0.1293060E+02 -0.2310450E+00  0.2981249E+00  0.2306171E+01  0.2000015E+00 -0.2210834E+00
 -0.9293350E+01 -0.1390850E+02 -0.2310450E+00  0.2727981E+00  0.2286661E+01  0.1790292E+00 -0.2058333E+00
 -0.7885340E+01 -0.1475240E+02 -0.2310450E+00  0.2449280E+00  0.2265043E+01  0.1567065E+00 -0.1882360E+00
 -0.6401370E+01 -0.1545430E+02 -0.2310450E+00  0.2091081E+00  0.2258832E+01  0.1327881E+00 -0.1615349E+00
 -0.4855760E+01 -0.1600730E+02 -0.2310450E+00  0.1595793E+00  0.2303417E+01  0.1067299E+00 -0.1186351E+00
 -0.3263390E+01 -0.1640620E+02 -0.2310450E+00  0.9201553E-01  0.2589747E+01  0.7835659E-01 -0.4824006E-01
 -0.1639590E+01 -0.1664710E+02 -0.2310450E+00  0.7383666E-01 -0.2259849E+01  0.4694579E-01  0.5699075E-01
  0.1994750E-06 -0.1672760E+02 -0.2310450E+00  0.1555244E+00 -0.1657877E+01  0.1352601E-01  0.1549352E+00
  0.1639600E+01 -0.1664710E+02 -0.2310450E+00  0.2416915E+00 -0.1473203E+01 -0.2355012E-01  0.2405414E+00
  0.3263390E+01 -0.1640620E+02 -0.2310450E+00  0.3217601E+00 -0.1368632E+01 -0.6460610E-01  0.3152072E+00
  0.4855770E+01 -0.1600730E+02 -0.2310450E+00  0.3736917E+00 -0.1292497E+01 -0.1026608E+00  0.3593136E+00
  0.6401380E+01 -0.1545430E+02 -0.2310450E+00  0.4089002E+00 -0.1231793E+01 -0.1359786E+00  0.3856283E+00
  0.7885340E+01 -0.1475240E+02 -0.2310450E+00  0.4328908E+00 -0.1178399E+01 -0.1655396E+00  0.3999889E+00
  0.9293360E+01 -0.1390850E+02 -0.2310450E+00  0.4510885E+00 -0.1130891E+01 -0.1920979E+00  0.4081411E+00
  0.1061190E+02 -0.1293060E+02 -0.2310450E+00  0.4687328E+00 -0.1091143E+01 -0.2163067E+00  0.4158387E+00
  0.1182820E+02 -0.1182820E+02 -0.2310450E+00  0.4817882E+00 -0.1054468E+01 -0.2378542E+00  0.4189811E+00
  0.1293060E+02 -0.1061190E+02 -0.2310450E+00  0.4931972E+00 -0.1022457E+01 -0.2570891E+00  0.4208904E+00
  0.1390850E+02 -0.9293360E+01 -0.2310450E+00  0.5040644E+00 -0.9954256E+00 -0.2742845E+00  0.4229053E+00
  0.1475240E+02 -0.7885330E+01 -0.2310450E+00  0.5093232E+00 -0.9683545E+00 -0.2886111E+00  0.4196591E+00
  0.1545430E+02 -0.6401380E+01 -0.2310450E+00  0.5116000E+00 -0.9434889E+00 -0.3002923E+00  0.4141969E+00
  0.1600730E+02 -0.4855760E+01 -0.2310450E+00  0.5134276E+00 -0.9234025E+00 -0.3096532E+00  0.4095398E+00
  0.1640620E+02 -0.3263390E+01 -0.2310450E+00  0.5157946E+00 -0.9091042E+00 -0.3169314E+00  0.4069380E+00
  0.1664710E+02 -0.1639590E+01 -0.2310450E+00  0.5177297E+00 -0.8994780E+00 -0.3220376E+00  0.4053836E+00
  0.1672760E+02  0.0000000E+00 -0.4105000E+00  0.5135246E+00 -0.8934098E+00 -0.3218560E+00  0.4001452E+00
  0.1664710E+02  0.1639590E+01 -0.4105000E+00  0.5119075E+00 -0.8898606E+00 -0.3222562E+00  0.3977439E+00
  0.1640620E+02  0.3263390E+01 -0.4105000E+00  0.5084525E+00 -0.8891968E+00 -0.3203434E+00  0.3948469E+00
  0.1600730E+02  0.4855770E+01 -0.4105000E+00  0.5048813E+00 -0.8927022E+00 -0.3167170E+00  0.3931862E+00
  0.1545430E+02  0.6401380E+01 -0.4105000E+00  0.5019552E+00 -0.9009417E+00 -0.3116499E+00  0.3934887E+00
  0.1475240E+02  0.7885340E+01 -0.4105000E+00  0.4983837E+00 -0.9127201E+00 -0.3048095E+00  0.3943064E+00
  0.1390850E+02  0.9293360E+01 -0.4105000E+00  0.4909330E+00 -0.9261721E+00 -0.2950007E+00  0.3924153E+00
  0.1293060E+02  0.1061190E+02 -0.4105000E+00  0.4760972E+00 -0.9400861E+00 -0.2807633E+00  0.3845003E+00
  0.1182820E+02  0.1182820E+02 -0.4105000E+00  0.4605139E+00 -0.9576578E+00 -0.2649968E+00  0.3766295E+00
  0.1061190E+02  0.1293060E+02 -0.4105000E+00  0.4425001E+00 -0.9781682E+00 -0.2471553E+00  0.3670430E+00
  0.9293360E+01  0.1390850E+02 -0.4105000E+00  0.4178064E+00 -0.1001043E+01 -0.2253751E+00  0.3518071E+00
  0.7885330E+01  0.1475240E+02 -0.4105000E+00  0.3902216E+00 -0.1027325E+01 -0.2017875E+00  0.3339980E+00
  0.6401380E+01  0.1545430E+02 -0.4105000E+00  0.3526047E+00 -0.1057537E+01 -0.1731357E+00  0.3071712E+00
  0.4855770E+01  0.1600730E+02 -0.4105000E+00  0.2972081E+00 -0.1095357E+01 -0.1360407E+00  0.2642453E+00
  0.3263390E+01  0.1640620E+02 -0.4105000E+00  0.2112629E+00 -0.1156902E+01 -0.8496520E-01  0.1934242E+00
  0.1639590E+01  0.1664710E+02 -0.4105000E+00  0.8962850E-01 -0.1403890E+01 -0.1489020E-01  0.8838297E-01
 -0.7311870E-06  0.1672760E+02 -0.4105000E+00  0.5477925E-01  0.2982369E+01  0.5408634E-01 -0.8685319E-02
 -0.1639590E+01  0.1664710E+02 -0.4105000E+00  0.1500488E+00  0.2478759E+01  0.1182762E+00 -0.9233300E-01
 -0.3263390E+01  0.1640620E+02 -0.4105000E+00  0.2403197E+00  0.2390779E+01  0.1757058E+00 -0.1639543E+00
 -0.4855770E+01  0.1600730E+02 -0.4105000E+00  0.2967404E+00  0.2374811E+01  0.2136968E+00 -0.2058848E+00
 -0.6401380E+01  0.1545430E+02 -0.4105000E+00  0.3327648E+00  0.2376637E+01  0.2400609E+00 -0.2304412E+00
 -0.7885340E+01  0.1475240E+02 -0.4105000E+00  0.3557881E+00  0.2387163E+01  0.2592494E+00 -0.2436698E+00
 -0.9293360E+01  0.1390850E+02 -0.4105000E+00  0.3719160E+00  0.2400376E+01  0.2743430E+00 -0.2511123E+00
 -0.1061190E+02  0.1293060E+02 -0.4105000E+00  0.3868843E+00  0.2411109E+01  0.2881714E+00 -0.2581409E+00
 -0.1182820E+02  0.1182820E+02 -0.4105000E+00  0.3966278E+00  0.2423230E+01  0.2986147E+00 -0.2610418E+00