 VARIABLES="X" "Y" "Z" "abs(eta) (m)" "angle(phi) (rad)" "PRE1" "PRE2"
ZONE N=   3200 ,E =    3136 ,F=FEPOINT,ET=QUADRILATERAL
  0.1530690E+02  0.0000000E+00  0.0000000E+00  0.1833496E+00  0.1886915E+01  0.5699979E-01 -0.1742644E+00
  0.1523320E+02  0.1500340E+01  0.0000000E+00  0.1850908E+00  0.1890070E+01  0.5809581E-01 -0.1757370E+00
  0.1501280E+02  0.2986230E+01  0.0000000E+00  0.1868547E+00  0.1892162E+01  0.5902038E-01 -0.1772887E+00
  0.1464780E+02  0.4443360E+01  0.0000000E+00  0.1880143E+00  0.1894060E+01  0.5972508E-01 -0.1782759E+00
  0.1414170E+02  0.5857700E+01  0.0000000E+00  0.1883733E+00  0.1895870E+01  0.6016234E-01 -0.1785077E+00
  0.1349950E+02  0.7215620E+01  0.0000000E+00  0.1879981E+00  0.1897506E+01  0.6033388E-01 -0.1780537E+00
  0.1272720E+02  0.8504060E+01  0.0000000E+00  0.1875151E+00  0.1898500E+01  0.6035544E-01 -0.1775362E+00
  0.1183240E+02  0.9710600E+01  0.0000000E+00  0.1876119E+00  0.1898651E+01  0.6041335E-01 -0.1776189E+00
  0.1082360E+02  0.1082360E+02  0.0000000E+00  0.1876056E+00  0.1898678E+01  0.6041620E-01 -0.1776112E+00
  0.9710590E+01  0.1183240E+02  0.0000000E+00  0.1862285E+00  0.1899317E+01  0.6008541E-01 -0.1762691E+00
  0.8504060E+01  0.1272720E+02  0.0000000E+00  0.1860891E+00  0.1898787E+01  0.5994694E-01 -0.1761690E+00
  0.7215620E+01  0.1349950E+02  0.0000000E+00  0.1845530E+00  0.1899655E+01  0.5960373E-01 -0.1746631E+00
  0.5857700E+01  0.1414170E+02  0.0000000E+00  0.1802316E+00  0.1903872E+01  0.5892687E-01 -0.1703263E+00
  0.4443360E+01  0.1464780E+02  0.0000000E+00  0.1742660E+00  0.1910510E+01  0.5806833E-01 -0.1643067E+00
  0.2986230E+01  0.1501280E+02  0.0000000E+00  0.1595662E+00  0.1927909E+01  0.5577968E-01 -0.1494992E+00
  0.1500340E+01  0.1523320E+02  0.0000000E+00  0.8897134E-01  0.2052104E+01  0.4118828E-01 -0.7886333E-01
 -0.6690860E-06  0.1530690E+02  0.0000000E+00  0.3703837E-01  0.2489472E+01  0.2943805E-01 -0.2247760E-01
 -0.1500340E+01  0.1523320E+02  0.0000000E+00  0.4605122E-01 -0.1951541E+01  0.1711320E-01  0.4275340E-01
 -0.2986230E+01  0.1501280E+02  0.0000000E+00  0.1532209E+00 -0.1569986E+01 -0.1240982E-03  0.1532209E+00
 -0.4443360E+01  0.1464780E+02  0.0000000E+00  0.1840682E+00 -0.1540859E+01 -0.5509706E-02  0.1839857E+00
 -0.5857700E+01  0.1414170E+02  0.0000000E+00  0.1990388E+00 -0.1526044E+01 -0.8904521E-02  0.1988395E+00
 -0.7215620E+01  0.1349950E+02  0.0000000E+00  0.2094038E+00 -0.1514228E+01 -0.1183931E-01  0.2090689E+00
 -0.8504060E+01  0.1272720E+02  0.0000000E+00  0.2159496E+00 -0.1504899E+01 -0.1422021E-01  0.2154809E+00
 -0.9710590E+01  0.1183240E+02  0.0000000E+00  0.2202033E+00 -0.1497285E+01 -0.1617279E-01  0.2196086E+00
 -0.1082360E+02  0.1082360E+02  0.0000000E+00  0.2252569E+00 -0.1490090E+01 -0.1815992E-01  0.2245237E+00
 -0.1183240E+02  0.9710590E+01  0.0000000E+00  0.2281941E+00 -0.1484147E+01 -0.1974815E-01  0.2273380E+00
 -0.1272720E+02  0.8504060E+01  0.0000000E+00  0.2309151E+00 -0.1479177E+01 -0.2112662E-01  0.2299467E+00
 -0.1349950E+02  0.7215620E+01  0.0000000E+00  0.2343015E+00 -0.1475139E+01 -0.2237836E-01  0.2332303E+00
 -0.1414170E+02  0.5857690E+01  0.0000000E+00  0.2373407E+00 -0.1472376E+01 -0.2332156E-01  0.2361921E+00
 -0.1464780E+02  0.4443360E+01  0.0000000E+00  0.2394116E+00 -0.1470983E+01 -0.2385671E-01  0.2382200E+00
 -0.1501280E+02  0.2986230E+01  0.0000000E+00  0.2405260E+00 -0.1470905E+01 -0.2398658E-01  0.2393270E+00
 -0.1523320E+02  0.1500340E+01  0.0000000E+00  0.2410240E+00 -0.1471990E+01 -0.2377606E-01  0.2398484E+00
 -0.1530690E+02 -0.1338170E-05  0.0000000E+00  0.2416319E+00 -0.1474357E+01 -0.2326683E-01  0.2405091E+00
 -0.1523320E+02 -0.1500340E+01  0.0000000E+00  0.2430375E+00 -0.1478189E+01 -0.2247501E-01  0.2419961E+00
 -0.1501280E+02 -0.2986230E+01  0.0000000E+00  0.2444903E+00 -0.1483381E+01 -0.2134494E-01  0.2435568E+00
 -0.1464780E+02 -0.4443360E+01  0.0000000E+00  0.2453498E+00 -0.1489795E+01 -0.1985198E-01  0.2445453E+00
 -0.1414170E+02 -0.5857700E+01  0.0000000E+00  0.2454334E+00 -0.1497287E+01 -0.1802538E-01  0.2447706E+00
 -0.1349950E+02 -0.7215620E+01  0.0000000E+00  0.2448170E+00 -0.1505873E+01 -0.1588317E-01  0.2443012E+00
 -0.1272720E+02 -0.8504060E+01  0.0000000E+00  0.2441255E+00 -0.1515871E+01 -0.1340183E-01  0.2437574E+00
 -0.1183240E+02 -0.9710600E+01  0.0000000E+00  0.2440331E+00 -0.1527683E+01 -0.1051792E-01  0.2438063E+00
 -0.1082360E+02 -0.1082360E+02  0.0000000E+00  0.2438641E+00 -0.1541068E+01 -0.7248625E-02  0.2437564E+00
 -0.9710600E+01 -0.1183240E+02  0.0000000E+00  0.2423837E+00 -0.1555551E+01 -0.3695163E-02  0.2423555E+00
 -0.8504050E+01 -0.1272720E+02  0.0000000E+00  0.2421842E+00 -0.1571955E+01  0.2805996E-03  0.2421840E+00
 -0.7215620E+01 -0.1349950E+02  0.0000000E+00  0.2406300E+00 -0.1589951E+01  0.4608803E-02  0.2405859E+00
 -0.5857690E+01 -0.1414170E+02  0.0000000E+00  0.2363186E+00 -0.1610193E+01  0.9307812E-02  0.2361352E+00
 -0.4443360E+01 -0.1464780E+02  0.0000000E+00  0.2304108E+00 -0.1633546E+01  0.1444876E-01  0.2299573E+00
 -0.2986230E+01 -0.1501280E+02  0.0000000E+00  0.2158075E+00 -0.1663094E+01  0.1989026E-01  0.2148890E+00
 -0.1500340E+01 -0.1523320E+02  0.0000000E+00  0.1453515E+00 -0.1720984E+01  0.2174799E-01  0.1437152E+00
  0.1825330E-06 -0.1530690E+02  0.0000000E+00  0.9018343E-01 -0.1828852E+01  0.2301490E-01  0.8719728E-01
  0.1500340E+01 -0.1523320E+02  0.0000000E+00  0.3256840E-01 -0.2397372E+01  0.2395784E-01  0.2206179E-01
  0.2986230E+01 -0.1501280E+02  0.0000000E+00  0.9118192E-01  0.1839740E+01  0.2422824E-01 -0.8790413E-01
  0.4443360E+01 -0.1464780E+02  0.0000000E+00  0.1215092E+00  0.1796490E+01  0.2719169E-01 -0.1184276E+00
  0.5857700E+01 -0.1414170E+02  0.0000000E+00  0.1365515E+00  0.1794880E+01  0.3034346E-01 -0.1331374E+00
  0.7215620E+01 -0.1349950E+02  0.0000000E+00  0.1470982E+00  0.1799567E+01  0.3335897E-01 -0.1432657E+00
  0.8504060E+01 -0.1272720E+02  0.0000000E+00  0.1539329E+00  0.1808767E+01  0.3628674E-01 -0.1495948E+00
  0.9710600E+01 -0.1183240E+02  0.0000000E+00  0.1585632E+00  0.1820260E+01  0.3914682E-01 -0.1536549E+00
  0.1082360E+02 -0.1082360E+02  0.0000000E+00  0.1639328E+00  0.1828667E+01  0.4180656E-01 -0.1585124E+00
  0.1183240E+02 -0.9710590E+01  0.0000000E+00  0.1672545E+00  0.1838874E+01  0.4430202E-01 -0.1612805E+00
  0.1272720E+02 -0.8504060E+01  0.0000000E+00  0.1703501E+00  0.1848028E+01  0.4662382E-01 -0.1638456E+00
  0.1349950E+02 -0.7215620E+01  0.0000000E+00  0.1740591E+00  0.1854723E+01  0.4875864E-01 -0.1670903E+00
  0.1414170E+02 -0.5857700E+01  0.0000000E+00  0.1774323E+00  0.1860892E+01  0.5075348E-01 -0.1700185E+00
  0.1464780E+02 -0.4443350E+01  0.0000000E+00  0.1798878E+00  0.1867586E+01  0.5260851E-01 -0.1720232E+00
  0.1501280E+02 -0.2986230E+01  0.0000000E+00  0.1814243E+00  0.1874702E+01  0.5429100E-01 -0.1731106E+00
  0.1523320E+02 -0.1500330E+01  0.0000000E+00  0.1823485E+00  0.1881496E+01  0.5574846E-01 -0.1736177E+00
  0.1530690E+02  0.0000000E+00 -0.2568960E-01  0.1832070E+00  0.1886933E+01  0.5695844E-01 -0.1741280E+00
  0.1523320E+02  0.1500340E+01 -0.2568960E-01  0.1849459E+00  0.1890090E+01  0.5805370E-01 -0.1755982E+00
  0.1501280E+02  0.2986230E+01 -0.2568960E-01  0.1867068E+00  0.1892182E+01  0.5897724E-01 -0.1771472E+00
  0.1464780E+02  0.4443360E+01 -0.2568960E-01  0.1878663E+00  0.1894078E+01  0.5968142E-01 -0.1781345E+00
  0.1414170E+02  0.5857700E+01 -0.2568960E-01  0.1882325E+00  0.1895881E+01  0.6011934E-01 -0.1783736E+00
  0.1349950E+02  0.7215620E+01 -0.2568960E-01  0.1878660E+00  0.1897507E+01  0.6029180E-01 -0.1779284E+00
  0.1272720E+02  0.8504060E+01 -0.2568960E-01  0.1873897E+00  0.1898499E+01  0.6031482E-01 -0.1774177E+00
  0.1183240E+02  0.9710600E+01 -0.2568960E-01  0.1874860E+00  0.1898644E+01  0.6037160E-01 -0.1775000E+00
  0.1082360E+02  0.1082360E+02 -0.2568960E-01  0.1874752E+00  0.1898677E+01  0.6037400E-01 -0.1774879E+00
  0.9710590E+01  0.1183240E+02 -0.2568960E-01  0.1861136E+00  0.1899308E+01  0.6004677E-01 -0.1761609E+00
  0.8504060E+01  0.1272720E+02 -0.2568960E-01  0.1859672E+00  0.1898780E+01  0.5990644E-01 -0.1760540E+00
  0.7215620E+01  0.1349950E+02 -0.2568960E-01  0.1844375E+00  0.1899644E+01  0.5956453E-01 -0.1745545E+00
  0.5857700E+01  0.1414170E+02 -0.2568960E-01  0.1801188E+00  0.1903859E+01  0.5888788E-01 -0.1702204E+00
  0.4443360E+01  0.1464780E+02 -0.2568960E-01  0.1741664E+00  0.1910496E+01  0.5803297E-01 -0.1642136E+00
  0.2986230E+01  0.1501280E+02 -0.2568960E-01  0.1594797E+00  0.1927885E+01  0.5574582E-01 -0.1494194E+00
  0.1500340E+01  0.1523320E+02 -0.2568960E-01  0.8893957E-01  0.2051993E+01  0.4116485E-01 -0.7883973E-01
 -0.6690860E-06  0.1530690E+02 -0.2568960E-01  0.3701264E-01  0.2489487E+01  0.2941793E-01 -0.2246155E-01
 -0.1500340E+01  0.1523320E+02 -0.2568960E-01  0.4605030E-01 -0.1951166E+01  0.1709681E-01  0.4275897E-01
 -0.2986230E+01  0.1501280E+02 -0.2568960E-01  0.1531239E+00 -0.1569968E+01 -0.1267719E-03  0.1531239E+00
 -0.4443360E+01  0.1464780E+02 -0.2568960E-01  0.1839592E+00 -0.1540847E+01 -0.5508678E-02  0.1838767E+00
 -0.5857700E+01  0.1414170E+02 -0.2568960E-01  0.1989069E+00 -0.1526032E+01 -0.8900980E-02  0.1987077E+00
 -0.7215620E+01  0.1349950E+02 -0.2568960E-01  0.2092715E+00 -0.1514224E+01 -0.1183260E-01  0.2089367E+00
 -0.8504060E+01  0.1272720E+02 -0.2568960E-01  0.2158054E+00 -0.1504900E+01 -0.1421043E-01  0.2153370E+00
 -0.9710590E+01  0.1183240E+02 -0.2568960E-01  0.2200636E+00 -0.1497287E+01 -0.1616216E-01  0.2194692E+00
 -0.1082360E+02  0.1082360E+02 -0.2568960E-01  0.2250988E+00 -0.1490093E+01 -0.1814657E-01  0.2243661E+00
 -0.1183240E+02  0.9710590E+01 -0.2568960E-01  0.2280395E+00 -0.1484148E+01 -0.1973448E-01  0.2271840E+00
 -0.1272720E+02  0.8504060E+01 -0.2568960E-01  0.2307601E+00 -0.1479178E+01 -0.2111224E-01  0.2297923E+00
 -0.1349950E+02  0.7215620E+01 -0.2568960E-01  0.2341360E+00 -0.1475142E+01 -0.2236190E-01  0.2330656E+00
 -0.1414170E+02  0.5857690E+01 -0.2568960E-01  0.2371623E+00 -0.1472380E+01 -0.2330297E-01  0.2360147E+00
 -0.1464780E+02  0.4443360E+01 -0.2568960E-01  0.2392261E+00 -0.1470987E+01 -0.2383732E-01  0.2380356E+00
 -0.1501280E+02  0.2986230E+01 -0.2568960E-01  0.2403378E+00 -0.1470905E+01 -0.2396780E-01  0.2391397E+00
 -0.1523320E+02  0.1500340E+01 -0.2568960E-01  0.2408375E+00 -0.1471993E+01 -0.2375694E-01  0.2396629E+00
 -0.1530690E+02 -0.1338170E-05 -0.2568960E-01  0.2414469E+00 -0.1474358E+01 -0.2324866E-01  0.2403250E+00
 -0.1523320E+02 -0.1500340E+01 -0.2568960E-01  0.2428497E+00 -0.1478187E+01 -0.2245809E-01  0.2418091E+00
 -0.1501280E+02 -0.2986230E+01 -0.2568960E-01  0.2442995E+00 -0.1483380E+01 -0.2132853E-01  0.2433667E+00
 -0.1464780E+02 -0.4443360E+01 -0.2568960E-01  0.2451605E+00 -0.1489795E+01 -0.1983653E-01  0.2443567E+00
 -0.1414170E+02 -0.5857700E+01 -0.2568960E-01  0.2452500E+00 -0.1497290E+01 -0.1801131E-01  0.2445877E+00
 -0.1349950E+02 -0.7215620E+01 -0.2568960E-01  0.2446425E+00 -0.1505878E+01 -0.1587071E-01  0.2441271E+00
 -0.1272720E+02 -0.8504060E+01 -0.2568960E-01  0.2439584E+00 -0.1515878E+01 -0.1339098E-01  0.2435906E+00
 -0.1183240E+02 -0.9710600E+01 -0.2568960E-01  0.2438659E+00 -0.1527689E+01 -0.1050903E-01  0.2436393E+00
 -0.1082360E+02 -0.1082360E+02 -0.2568960E-01  0.2436923E+00 -0.1541073E+01 -0.7242258E-02  0.2435846E+00
 -0.9710600E+01 -0.1183240E+02 -0.2568960E-01  0.2422268E+00 -0.1555557E+01 -0.3691277E-02  0.2421987E+00
 -0.8504050E+01 -0.1272720E+02 -0.2568960E-01  0.2420201E+00 -0.1571958E+01  0.2811186E-03  0.2420200E+00
 -0.7215620E+01 -0.1349950E+02 -0.2568960E-01  0.2404730E+00 -0.1589956E+01  0.4607094E-02  0.2404289E+00
 -0.5857690E+01 -0.1414170E+02 -0.2568960E-01  0.2361656E+00 -0.1610196E+01  0.9302535E-02  0.2359823E+00
 -0.4443360E+01 -0.1464780E+02 -0.2568960E-01  0.2302700E+00 -0.1633547E+01  0.1444022E-01  0.2298168E+00
 -0.2986230E+01 -0.1501280E+02 -0.2568960E-01  0.2156799E+00 -0.1663091E+01  0.1987788E-01  0.2147619E+00
 -0.1500340E+01 -0.1523320E+02 -0.2568960E-01  0.1452779E+00 -0.1720965E+01  0.2173425E-01  0.1436429E+00
  0.1825330E-06 -0.1530690E+02 -0.2568960E-01  0.9011836E-01 -0.1828862E+01  0.2299916E-01  0.8713414E-01
  0.1500340E+01 -0.1523320E+02 -0.2568960E-01  0.3252140E-01 -0.2398179E+01  0.2394103E-01  0.2201065E-01
  0.2986230E+01 -0.1501280E+02 -0.2568960E-01  0.9113082E-01  0.1839714E+01  0.2421235E-01 -0.8785550E-01
  0.4443360E+01 -0.1464780E+02 -0.2568960E-01  0.1214455E+00  0.1796444E+01  0.2717193E-01 -0.1183667E+00
  0.5857700E+01 -0.1414170E+02 -0.2568960E-01  0.1364664E+00  0.1794862E+01  0.3032222E-01 -0.1330550E+00
  0.7215620E+01 -0.1349950E+02 -0.2568960E-01  0.1470108E+00  0.1799539E+01  0.3333522E-01 -0.1431815E+00
  0.8504060E+01 -0.1272720E+02 -0.2568960E-01  0.1538324E+00  0.1808752E+01  0.3626082E-01 -0.1494977E+00
  0.9710600E+01 -0.1183240E+02 -0.2568960E-01  0.1584688E+00  0.1820232E+01  0.3911916E-01 -0.1535645E+00
  0.1082360E+02 -0.1082360E+02 -0.2568960E-01  0.1638194E+00  0.1828666E+01  0.4177743E-01 -0.1584028E+00
  0.1183240E+02 -0.9710590E+01 -0.2568960E-01  0.1671436E+00  0.1838859E+01  0.4427023E-01 -0.1611742E+00
  0.1272720E+02 -0.8504060E+01 -0.2568960E-01  0.1702396E+00  0.1848005E+01  0.4658983E-01 -0.1637403E+00
  0.1349950E+02 -0.7215620E+01 -0.2568960E-01  0.1739371E+00  0.1854718E+01  0.4872374E-01 -0.1669734E+00
  0.1414170E+02 -0.5857700E+01 -0.2568960E-01  0.1772998E+00  0.1860906E+01  0.5071782E-01 -0.1698909E+00
  0.1464780E+02 -0.4443350E+01 -0.2568960E-01  0.1797461E+00  0.1867608E+01  0.5257088E-01 -0.1718865E+00
  0.1501280E+02 -0.2986230E+01 -0.2568960E-01  0.1812812E+00  0.1874734E+01  0.5425373E-01 -0.1729723E+00
  0.1523320E+02 -0.1500330E+01 -0.2568960E-01  0.1822053E+00  0.1881521E+01  0.5570894E-01 -0.1734799E+00
  0.1530690E+02  0.0000000E+00 -0.1027320E+00  0.1827961E+00  0.1886962E+01  0.5683579E-01 -0.1737357E+00
  0.1523320E+02  0.1500340E+01 -0.1027320E+00  0.1845258E+00  0.1890126E+01  0.5792825E-01 -0.1751972E+00
  0.1501280E+02  0.2986230E+01 -0.1027320E+00  0.1862767E+00  0.1892224E+01  0.5884882E-01 -0.1767367E+00
  0.1464780E+02  0.4443360E+01 -0.1027320E+00  0.1874384E+00  0.1894109E+01  0.5955102E-01 -0.1777269E+00
  0.1414170E+02  0.5857700E+01 -0.1027320E+00  0.1878199E+00  0.1895894E+01  0.5998990E-01 -0.1779819E+00
  0.1349950E+02  0.7215620E+01 -0.1027320E+00  0.1874810E+00  0.1897497E+01  0.6016637E-01 -0.1775645E+00
  0.1272720E+02  0.8504060E+01 -0.1027320E+00  0.1870251E+00  0.1898474E+01  0.6019305E-01 -0.1770740E+00
  0.1183240E+02  0.9710600E+01 -0.1027320E+00  0.1871168E+00  0.1898624E+01  0.6024924E-01 -0.1771517E+00
  0.1082360E+02  0.1082360E+02 -0.1027320E+00  0.1870937E+00  0.1898659E+01  0.6024803E-01 -0.1771278E+00
  0.9710590E+01  0.1183240E+02 -0.1027320E+00  0.1857723E+00  0.1899260E+01  0.5992818E-01 -0.1758407E+00
  0.8504060E+01  0.1272720E+02 -0.1027320E+00  0.1856042E+00  0.1898751E+01  0.5978444E-01 -0.1757121E+00
  0.7215620E+01  0.1349950E+02 -0.1027320E+00  0.1840775E+00  0.1899625E+01  0.5944497E-01 -0.1742149E+00
  0.5857700E+01  0.1414170E+02 -0.1027320E+00  0.1797917E+00  0.1903805E+01  0.5877170E-01 -0.1699145E+00
  0.4443360E+01  0.1464780E+02 -0.1027320E+00  0.1738712E+00  0.1910426E+01  0.5792316E-01 -0.1639393E+00
  0.2986230E+01  0.1501280E+02 -0.1027320E+00  0.1592019E+00  0.1927810E+01  0.5563747E-01 -0.1491634E+00
  0.1500340E+01  0.1523320E+02 -0.1027320E+00  0.8883104E-01  0.2051728E+01  0.4109372E-01 -0.7875443E-01
 -0.6690860E-06  0.1530690E+02 -0.1027320E+00  0.3693997E-01  0.2489436E+01  0.2935904E-01 -0.2241894E-01
 -0.1500340E+01  0.1523320E+02 -0.1027320E+00  0.4604898E-01 -0.1950021E+01  0.1704733E-01  0.4277730E-01
 -0.2986230E+01  0.1501280E+02 -0.1027320E+00  0.1528158E+00 -0.1569952E+01 -0.1290547E-03  0.1528158E+00
 -0.4443360E+01  0.1464780E+02 -0.1027320E+00  0.1836348E+00 -0.1540804E+01 -0.5506807E-02  0.1835522E+00
 -0.5857700E+01  0.1414170E+02 -0.1027320E+00  0.1985216E+00 -0.1526017E+01 -0.8886743E-02  0.1983226E+00
 -0.7215620E+01  0.1349950E+02 -0.1027320E+00  0.2088590E+00 -0.1514214E+01 -0.1181137E-01  0.2085248E+00
 -0.8504060E+01  0.1272720E+02 -0.1027320E+00  0.2153751E+00 -0.1504900E+01 -0.1418211E-01  0.2149076E+00
 -0.9710590E+01  0.1183240E+02 -0.1027320E+00  0.2196499E+00 -0.1497272E+01 -0.1613504E-01  0.2190564E+00
 -0.1082360E+02  0.1082360E+02 -0.1027320E+00  0.2246300E+00 -0.1490088E+01 -0.1810981E-01  0.2238988E+00
 -0.1183240E+02  0.9710590E+01 -0.1027320E+00  0.2275844E+00 -0.1484143E+01 -0.1969626E-01  0.2267305E+00
 -0.1272720E+02  0.8504060E+01 -0.1027320E+00  0.2303053E+00 -0.1479178E+01 -0.2107071E-01  0.2293394E+00
 -0.1349950E+02  0.7215620E+01 -0.1027320E+00  0.2336503E+00 -0.1475146E+01 -0.2231464E-01  0.2325822E+00
 -0.1414170E+02  0.5857690E+01 -0.1027320E+00  0.2366421E+00 -0.1472387E+01 -0.2325032E-01  0.2354971E+00
 -0.1464780E+02  0.4443360E+01 -0.1027320E+00  0.2386836E+00 -0.1471003E+01 -0.2377946E-01  0.2374961E+00
 -0.1501280E+02  0.2986230E+01 -0.1027320E+00  0.2397894E+00 -0.1470912E+01 -0.2391133E-01  0.2385942E+00
 -0.1523320E+02  0.1500340E+01 -0.1027320E+00  0.2402942E+00 -0.1471995E+01 -0.2370271E-01  0.2391223E+00
 -0.1530690E+02 -0.1338170E-05 -0.1027320E+00  0.2409077E+00 -0.1474359E+01 -0.2319661E-01  0.2397883E+00
 -0.1523320E+02 -0.1500340E+01 -0.1027320E+00  0.2423015E+00 -0.1478185E+01 -0.2240769E-01  0.2412631E+00
 -0.1501280E+02 -0.2986230E+01 -0.1027320E+00  0.2437427E+00 -0.1483374E+01 -0.2128146E-01  0.2428119E+00
 -0.1464780E+02 -0.4443360E+01 -0.1027320E+00  0.2446066E+00 -0.1489794E+01 -0.1979192E-01  0.2438045E+00
 -0.1414170E+02 -0.5857700E+01 -0.1027320E+00  0.2447132E+00 -0.1497293E+01 -0.1797094E-01  0.2440524E+00
 -0.1349950E+02 -0.7215620E+01 -0.1027320E+00  0.2441327E+00 -0.1505889E+01 -0.1583497E-01  0.2436186E+00
 -0.1272720E+02 -0.8504060E+01 -0.1027320E+00  0.2434689E+00 -0.1515896E+01 -0.1335989E-01  0.2431021E+00
 -0.1183240E+02 -0.9710600E+01 -0.1027320E+00  0.2433728E+00 -0.1527705E+01 -0.1048405E-01  0.2431469E+00
 -0.1082360E+02 -0.1082360E+02 -0.1027320E+00  0.2431873E+00 -0.1541081E+01 -0.7225212E-02  0.2430799E+00
 -0.9710600E+01 -0.1183240E+02 -0.1027320E+00  0.2417632E+00 -0.1555573E+01 -0.3680330E-02  0.2417352E+00
 -0.8504050E+01 -0.1272720E+02 -0.1027320E+00  0.2415345E+00 -0.1571970E+01  0.2835046E-03  0.2415343E+00
 -0.7215620E+01 -0.1349950E+02 -0.1027320E+00  0.2399898E+00 -0.1589966E+01  0.4600188E-02  0.2399457E+00
 -0.5857690E+01 -0.1414170E+02 -0.1027320E+00  0.2357153E+00 -0.1610199E+01  0.9285440E-02  0.2355324E+00
 -0.4443360E+01 -0.1464780E+02 -0.1027320E+00  0.2298511E+00 -0.1633552E+01  0.1441501E-01  0.2293986E+00
 -0.2986230E+01 -0.1501280E+02 -0.1027320E+00  0.2152795E+00 -0.1663088E+01  0.1984041E-01  0.2143633E+00
 -0.1500340E+01 -0.1523320E+02 -0.1027320E+00  0.1450484E+00 -0.1720917E+01  0.2169313E-01  0.1434171E+00
  0.1825330E-06 -0.1530690E+02 -0.1027320E+00  0.8992892E-01 -0.1828897E+01  0.2295389E-01  0.8695015E-01
  0.1500340E+01 -0.1523320E+02 -0.1027320E+00  0.3237648E-01 -0.2400762E+01  0.2389086E-01  0.2185093E-01
  0.2986230E+01 -0.1501280E+02 -0.1027320E+00  0.9095812E-01  0.1839661E+01  0.2416181E-01 -0.8769029E-01
  0.4443360E+01 -0.1464780E+02 -0.1027320E+00  0.1212560E+00  0.1796314E+01  0.2711419E-01 -0.1181856E+00
  0.5857700E+01 -0.1414170E+02 -0.1027320E+00  0.1362157E+00  0.1794792E+01  0.3025723E-01 -0.1328127E+00
  0.7215620E+01 -0.1349950E+02 -0.1027320E+00  0.1467333E+00  0.1799488E+01  0.3326494E-01 -0.1429130E+00
  0.8504060E+01 -0.1272720E+02 -0.1027320E+00  0.1535380E+00  0.1808706E+01  0.3618452E-01 -0.1492133E+00
  0.9710600E+01 -0.1183240E+02 -0.1027320E+00  0.1581878E+00  0.1820138E+01  0.3903543E-01 -0.1532958E+00
  0.1082360E+02 -0.1082360E+02 -0.1027320E+00  0.1634850E+00  0.1828646E+01  0.4168902E-01 -0.1580803E+00
  0.1183240E+02 -0.9710590E+01 -0.1027320E+00  0.1668201E+00  0.1838809E+01  0.4417651E-01 -0.1608645E+00
  0.1272720E+02 -0.8504060E+01 -0.1027320E+00  0.1699149E+00  0.1847952E+01  0.4649223E-01 -0.1634305E+00
  0.1349950E+02 -0.7215620E+01 -0.1027320E+00  0.1735830E+00  0.1854703E+01  0.4862193E-01 -0.1666342E+00
  0.1414170E+02 -0.5857700E+01 -0.1027320E+00  0.1769116E+00  0.1860927E+01  0.5061038E-01 -0.1695179E+00
  0.1464780E+02 -0.4443350E+01 -0.1027320E+00  0.1793360E+00  0.1867657E+01  0.5245934E-01 -0.1714918E+00
  0.1501280E+02 -0.2986230E+01 -0.1027320E+00  0.1808632E+00  0.1874781E+01  0.5413670E-01 -0.1725709E+00
  0.1523320E+02 -0.1500330E+01 -0.1027320E+00  0.1817919E+00  0.1881554E+01  0.5558828E-01 -0.1730845E+00
  0.1530690E+02  0.0000000E+00 -0.2310450E+00  0.1821105E+00  0.1887017E+01  0.5663216E-01 -0.1730811E+00
  0.1523320E+02  0.1500340E+01 -0.2310450E+00  0.1838243E+00  0.1890188E+01  0.5771882E-01 -0.1745277E+00
  0.1501280E+02  0.2986230E+01 -0.2310450E+00  0.1855598E+00  0.1892293E+01  0.5863446E-01 -0.1760524E+00
  0.1464780E+02  0.4443360E+01 -0.2310450E+00  0.1867254E+00  0.1894169E+01  0.5933511E-01 -0.1770472E+00
  0.1414170E+02  0.5857700E+01 -0.2310450E+00  0.1871330E+00  0.1895916E+01  0.5977432E-01 -0.1773296E+00
  0.1349950E+02  0.7215620E+01 -0.2310450E+00  0.1868376E+00  0.1897486E+01  0.5995795E-01 -0.1769557E+00
  0.1272720E+02  0.8504060E+01 -0.2310450E+00  0.1864149E+00  0.1898438E+01  0.5999039E-01 -0.1764983E+00
  0.1183240E+02  0.9710600E+01 -0.2310450E+00  0.1864991E+00  0.1898584E+01  0.6004325E-01 -0.1765693E+00
  0.1082360E+02  0.1082360E+02 -0.2310450E+00  0.1864552E+00  0.1898640E+01  0.6003894E-01 -0.1765244E+00
  0.9710590E+01  0.1183240E+02 -0.2310450E+00  0.1852023E+00  0.1899183E+01  0.5973076E-01 -0.1753058E+00
  0.8504060E+01  0.1272720E+02 -0.2310450E+00  0.1849983E+00  0.1898715E+01  0.5958297E-01 -0.1751406E+00
  0.7215620E+01  0.1349950E+02 -0.2310450E+00  0.1834761E+00  0.1899590E+01  0.5924481E-01 -0.1736478E+00
  0.5857700E+01  0.1414170E+02 -0.2310450E+00  0.1792460E+00  0.1903720E+01  0.5857887E-01 -0.1694038E+00
  0.4443360E+01  0.1464780E+02 -0.2310450E+00  0.1733679E+00  0.1910325E+01  0.5773891E-01 -0.1634706E+00
  0.2986230E+01  0.1501280E+02 -0.2310450E+00  0.1587585E+00  0.1927664E+01  0.5546081E-01 -0.1487561E+00
  0.1500340E+01  0.1523320E+02 -0.2310450E+00  0.8859871E-01  0.2051450E+01  0.4096437E-01 -0.7855985E-01
 -0.6690860E-06  0.1530690E+02 -0.2310450E+00  0.3681546E-01  0.2489393E+01  0.2925911E-01 -0.2234464E-01
 -0.1500340E+01  0.1523320E+02 -0.2310450E+00  0.4593594E-01 -0.1949475E+01  0.1698219E-01  0.4268156E-01
 -0.2986230E+01  0.1501280E+02 -0.2310450E+00  0.1523367E+00 -0.1569884E+01 -0.1389642E-03  0.1523366E+00
 -0.4443360E+01  0.1464780E+02 -0.2310450E+00  0.1830758E+00 -0.1540761E+01 -0.5497984E-02  0.1829932E+00
 -0.5857700E+01  0.1414170E+02 -0.2310450E+00  0.1978799E+00 -0.1525982E+01 -0.8864913E-02  0.1976812E+00
 -0.7215620E+01  0.1349950E+02 -0.2310450E+00  0.2081693E+00 -0.1514207E+01 -0.1177379E-01  0.2078360E+00
 -0.8504060E+01  0.1272720E+02 -0.2310450E+00  0.2146567E+00 -0.1504901E+01 -0.1413468E-01  0.2141908E+00
 -0.9710590E+01  0.1183240E+02 -0.2310450E+00  0.2189573E+00 -0.1497261E+01 -0.1608665E-01  0.2183656E+00
 -0.1082360E+02  0.1082360E+02 -0.2310450E+00  0.2238467E+00 -0.1490091E+01 -0.1804591E-01  0.2231181E+00
 -0.1183240E+02  0.9710590E+01 -0.2310450E+00  0.2268218E+00 -0.1484146E+01 -0.1962972E-01  0.2259708E+00
 -0.1272720E+02  0.8504060E+01 -0.2310450E+00  0.2295440E+00 -0.1479183E+01 -0.2099977E-01  0.2285814E+00
 -0.1349950E+02  0.7215620E+01 -0.2310450E+00  0.2328383E+00 -0.1475165E+01 -0.2223267E-01  0.2317744E+00
 -0.1414170E+02  0.5857690E+01 -0.2310450E+00  0.2357727E+00 -0.1472410E+01 -0.2315942E-01  0.2346325E+00
 -0.1464780E+02  0.4443360E+01 -0.2310450E+00  0.2377789E+00 -0.1471018E+01 -0.2368584E-01  0.2365963E+00
 -0.1501280E+02  0.2986230E+01 -0.2310450E+00  0.2388740E+00 -0.1470927E+01 -0.2381654E-01  0.2376838E+00
 -0.1523320E+02  0.1500340E+01 -0.2310450E+00  0.2393893E+00 -0.1472002E+01 -0.2361191E-01  0.2382220E+00
 -0.1530690E+02 -0.1338170E-05 -0.2310450E+00  0.2400085E+00 -0.1474363E+01 -0.2310901E-01  0.2388934E+00
 -0.1523320E+02 -0.1500340E+01 -0.2310450E+00  0.2413884E+00 -0.1478185E+01 -0.2232325E-01  0.2403540E+00
 -0.1501280E+02 -0.2986230E+01 -0.2310450E+00  0.2428151E+00 -0.1483372E+01 -0.2120095E-01  0.2418877E+00
 -0.1464780E+02 -0.4443360E+01 -0.2310450E+00  0.2436841E+00 -0.1489786E+01 -0.1971937E-01  0.2428850E+00
 -0.1414170E+02 -0.5857700E+01 -0.2310450E+00  0.2438180E+00 -0.1497296E+01 -0.1790465E-01  0.2431597E+00
 -0.1349950E+02 -0.7215620E+01 -0.2310450E+00  0.2432822E+00 -0.1505911E+01 -0.1577431E-01  0.2427702E+00
 -0.1272720E+02 -0.8504060E+01 -0.2310450E+00  0.2426519E+00 -0.1515932E+01 -0.1330619E-01  0.2422868E+00
 -0.1183240E+02 -0.9710600E+01 -0.2310450E+00  0.2425496E+00 -0.1527731E+01 -0.1044216E-01  0.2423247E+00
 -0.1082360E+02 -0.1082360E+02 -0.2310450E+00  0.2423438E+00 -0.1541095E+01 -0.7196980E-02  0.2422369E+00
 -0.9710600E+01 -0.1183240E+02 -0.2310450E+00  0.2409884E+00 -0.1555603E+01 -0.3661308E-02  0.2409606E+00
 -0.8504050E+01 -0.1272720E+02 -0.2310450E+00  0.2407238E+00 -0.1571987E+01  0.2865758E-03  0.2407236E+00
 -0.7215620E+01 -0.1349950E+02 -0.2310450E+00  0.2391844E+00 -0.1589980E+01  0.4588207E-02  0.2391404E+00
 -0.5857690E+01 -0.1414170E+02 -0.2310450E+00  0.2349648E+00 -0.1610211E+01  0.9258771E-02  0.2347823E+00
 -0.4443360E+01 -0.1464780E+02 -0.2310450E+00  0.2291434E+00 -0.1633562E+01  0.1437284E-01  0.2286922E+00
 -0.2986230E+01 -0.1501280E+02 -0.2310450E+00  0.2146305E+00 -0.1663085E+01  0.1977983E-01  0.2137171E+00
 -0.1500340E+01 -0.1523320E+02 -0.2310450E+00  0.1446134E+00 -0.1720881E+01  0.2162284E-01  0.1429877E+00
  0.1825330E-06 -0.1530690E+02 -0.2310450E+00  0.8960962E-01 -0.1828954E+01  0.2287726E-01  0.8664014E-01
  0.1500340E+01 -0.1523320E+02 -0.2310450E+00  0.3222141E-01 -0.2402229E+01  0.2380833E-01  0.2171136E-01
  0.2986230E+01 -0.1501280E+02 -0.2310450E+00  0.9070268E-01  0.1839472E+01  0.2407747E-01 -0.8744856E-01
  0.4443360E+01 -0.1464780E+02 -0.2310450E+00  0.1209216E+00  0.1796136E+01  0.2701843E-01 -0.1178645E+00
  0.5857700E+01 -0.1414170E+02 -0.2310450E+00  0.1357990E+00  0.1794686E+01  0.3015062E-01 -0.1324096E+00
  0.7215620E+01 -0.1349950E+02 -0.2310450E+00  0.1462691E+00  0.1799405E+01  0.3314780E-01 -0.1424635E+00
  0.8504060E+01 -0.1272720E+02 -0.2310450E+00  0.1530439E+00  0.1808647E+01  0.3605932E-01 -0.1487352E+00
  0.9710600E+01 -0.1183240E+02 -0.2310450E+00  0.1577150E+00  0.1819998E+01  0.3889732E-01 -0.1528431E+00
  0.1082360E+02 -0.1082360E+02 -0.2310450E+00  0.1629232E+00  0.1828623E+01  0.4154214E-01 -0.1575380E+00
  0.1183240E+02 -0.9710590E+01 -0.2310450E+00  0.1662770E+00  0.1838732E+01  0.4402043E-01 -0.1603442E+00
  0.1272720E+02 -0.8504060E+01 -0.2310450E+00  0.1693725E+00  0.1847861E+01  0.4632899E-01 -0.1629131E+00
  0.1349950E+02 -0.7215620E+01 -0.2310450E+00  0.1729903E+00  0.1854681E+01  0.4845240E-01 -0.1660663E+00
  0.1414170E+02 -0.5857700E+01 -0.2310450E+00  0.1762620E+00  0.1860986E+01  0.5043460E-01 -0.1688924E+00
  0.1464780E+02 -0.4443350E+01 -0.2310450E+00  0.1786514E+00  0.1867753E+01  0.5227536E-01 -0.1708321E+00
  0.1501280E+02 -0.2986230E+01 -0.2310450E+00  0.1801658E+00  0.1874877E+01  0.5394455E-01 -0.1719003E+00
  0.1523320E+02 -0.1500330E+01 -0.2310450E+00  0.1811010E+00  0.1881630E+01  0.5539012E-01 -0.1724225E+00
  0.1530690E+02  0.0000000E+00 -0.4105000E+00  0.1811662E+00  0.1887087E+01  0.5635049E-01 -0.1721796E+00
  0.1523320E+02  0.1500340E+01 -0.4105000E+00  0.1828582E+00  0.1890257E+01  0.5742742E-01 -0.1736065E+00
  0.1501280E+02  0.2986230E+01 -0.4105000E+00  0.1845716E+00  0.1892378E+01  0.5833707E-01 -0.1751099E+00
  0.1464780E+02  0.4443360E+01 -0.4105000E+00  0.1857433E+00  0.1894227E+01  0.5903311E-01 -0.1761127E+00
  0.1414170E+02  0.5857700E+01 -0.4105000E+00  0.1861884E+00  0.1895944E+01  0.5947759E-01 -0.1764328E+00
  0.1349950E+02  0.7215620E+01 -0.4105000E+00  0.1859540E+00  0.1897452E+01  0.5966849E-01 -0.1761208E+00
  0.1272720E+02  0.8504060E+01 -0.4105000E+00  0.1855778E+00  0.1898370E+01  0.5970910E-01 -0.1757098E+00
  0.1183240E+02  0.9710600E+01 -0.4105000E+00  0.1856503E+00  0.1898522E+01  0.5975913E-01 -0.1757693E+00
  0.1082360E+02  0.1082360E+02 -0.4105000E+00  0.1855727E+00  0.1898587E+01  0.5974551E-01 -0.1756920E+00
  0.9710590E+01  0.1183240E+02 -0.4105000E+00  0.1844136E+00  0.1899073E+01  0.5945713E-01 -0.1745658E+00
  0.8504060E+01  0.1272720E+02 -0.4105000E+00  0.1841521E+00  0.1898657E+01  0.5930031E-01 -0.1743429E+00
  0.7215620E+01  0.1349950E+02 -0.4105000E+00  0.1826123E+00  0.1899559E+01  0.5896049E-01 -0.1728320E+00
  0.5857700E+01  0.1414170E+02 -0.4105000E+00  0.1784516E+00  0.1903625E+01  0.5830336E-01 -0.1686585E+00
  0.4443360E+01  0.1464780E+02 -0.4105000E+00  0.1725940E+00  0.1910250E+01  0.5746899E-01 -0.1627452E+00
  0.2986230E+01  0.1501280E+02 -0.4105000E+00  0.1580587E+00  0.1927562E+01  0.5520123E-01 -0.1481060E+00
  0.1500340E+01  0.1523320E+02 -0.4105000E+00  0.8818429E-01  0.2051383E+01  0.4076760E-01 -0.7819509E-01
 -0.6690860E-06  0.1530690E+02 -0.4105000E+00  0.3662777E-01  0.2489814E+01  0.2911930E-01 -0.2221845E-01
 -0.1500340E+01  0.1523320E+02 -0.4105000E+00  0.4571769E-01 -0.1949484E+01  0.1690191E-01  0.4247861E-01
 -0.2986230E+01  0.1501280E+02 -0.4105000E+00  0.1516229E+00 -0.1569860E+01 -0.1419697E-03  0.1516229E+00
 -0.4443360E+01  0.1464780E+02 -0.4105000E+00  0.1822255E+00 -0.1540744E+01 -0.5475493E-02  0.1821433E+00
 -0.5857700E+01  0.1414170E+02 -0.4105000E+00  0.1969523E+00 -0.1525960E+01 -0.8827738E-02  0.1967544E+00
 -0.7215620E+01  0.1349950E+02 -0.4105000E+00  0.2071772E+00 -0.1514211E+01 -0.1171684E-01  0.2068456E+00
 -0.8504060E+01  0.1272720E+02 -0.4105000E+00  0.2136534E+00 -0.1504906E+01 -0.1406751E-01  0.2131898E+00
 -0.9710590E+01  0.1183240E+02 -0.4105000E+00  0.2179972E+00 -0.1497233E+01 -0.1602223E-01  0.2174076E+00
 -0.1082360E+02  0.1082360E+02 -0.4105000E+00  0.2227604E+00 -0.1490100E+01 -0.1795641E-01  0.2220355E+00