 VARIABLES="X" "Y" "Z" "abs(eta) (m)" "angle(phi) (rad)" "PRE1" "PRE2"
ZONE N=   3200 ,E =    3136 ,F=FEPOINT,ET=QUADRILATERAL
  0.1530690E+02  0.0000000E+00  0.0000000E+00  0.1386267E+00  0.1910368E+01  0.4617427E-01 -0.1307108E+00
  0.1523320E+02  0.1500340E+01  0.0000000E+00  0.1368432E+00  0.1902580E+01  0.4457388E-01 -0.1293802E+00
  0.1501280E+02  0.2986230E+01  0.0000000E+00  0.1351396E+00  0.1893238E+01  0.4282348E-01 -0.1281751E+00
  0.1464780E+02  0.4443360E+01  0.0000000E+00  0.1329604E+00  0.1883821E+01  0.4094347E-01 -0.1264994E+00
  0.1414170E+02  0.5857700E+01  0.0000000E+00  0.1300312E+00  0.1875481E+01  0.3900841E-01 -0.1240422E+00
  0.1349950E+02  0.7215620E+01  0.0000000E+00  0.1263283E+00  0.1868563E+01  0.3706291E-01 -0.1207691E+00
  0.1272720E+02  0.8504060E+01  0.0000000E+00  0.1222933E+00  0.1861708E+01  0.3507685E-01 -0.1171549E+00
  0.1183240E+02  0.9710600E+01  0.0000000E+00  0.1187371E+00  0.1851570E+01  0.3290191E-01 -0.1140875E+00
  0.1082360E+02  0.1082360E+02  0.0000000E+00  0.1149570E+00  0.1840260E+01  0.3060320E-01 -0.1108087E+00
  0.9710590E+01  0.1183240E+02  0.0000000E+00  0.1093509E+00  0.1833160E+01  0.2836168E-01 -0.1056089E+00
  0.8504060E+01  0.1272720E+02  0.0000000E+00  0.1041444E+00  0.1822790E+01  0.2596681E-01 -0.1008553E+00
  0.7215620E+01  0.1349950E+02  0.0000000E+00  0.9693396E-01  0.1817867E+01  0.2370661E-01 -0.9399037E-01
  0.5857700E+01  0.1414170E+02  0.0000000E+00  0.8650682E-01  0.1823240E+01  0.2160692E-01 -0.8376498E-01
  0.4443360E+01  0.1464780E+02  0.0000000E+00  0.7168604E-01  0.1852342E+01  0.1991728E-01 -0.6886356E-01
  0.2986230E+01  0.1501280E+02  0.0000000E+00  0.4378958E-01  0.2043650E+01  0.1994303E-01 -0.3898465E-01
  0.1500340E+01  0.1523320E+02  0.0000000E+00  0.6806880E-01 -0.2019489E+01  0.2952743E-01  0.6133100E-01
 -0.6690860E-06  0.1530690E+02  0.0000000E+00  0.1199006E+00 -0.1846330E+01  0.3262020E-01  0.1153780E+00
 -0.1500340E+01  0.1523320E+02  0.0000000E+00  0.1597817E+00 -0.1776117E+01  0.3257640E-01  0.1564256E+00
 -0.2986230E+01  0.1501280E+02  0.0000000E+00  0.2001309E+00 -0.1710598E+01  0.2788749E-01  0.1981784E+00
 -0.4443360E+01  0.1464780E+02  0.0000000E+00  0.2055524E+00 -0.1673683E+01  0.2111124E-01  0.2044654E+00
 -0.5857700E+01  0.1414170E+02  0.0000000E+00  0.2068295E+00 -0.1645299E+01  0.1539505E-01  0.2062558E+00
 -0.7215620E+01  0.1349950E+02  0.0000000E+00  0.2079623E+00 -0.1621415E+01  0.1052227E-01  0.2076959E+00
 -0.8504060E+01  0.1272720E+02  0.0000000E+00  0.2073179E+00 -0.1600105E+01  0.6075323E-02  0.2072289E+00
 -0.9710590E+01  0.1183240E+02  0.0000000E+00  0.2059517E+00 -0.1580715E+01  0.2042708E-02  0.2059416E+00
 -0.1082360E+02  0.1082360E+02  0.0000000E+00  0.2057736E+00 -0.1563671E+01 -0.1466151E-02  0.2057684E+00
 -0.1183240E+02  0.9710590E+01  0.0000000E+00  0.2048455E+00 -0.1548196E+01 -0.4629120E-02  0.2047932E+00
 -0.1272720E+02  0.8504060E+01  0.0000000E+00  0.2039067E+00 -0.1534444E+01 -0.7410936E-02  0.2037719E+00
 -0.1349950E+02  0.7215620E+01  0.0000000E+00  0.2034202E+00 -0.1522560E+01 -0.9808407E-02  0.2031836E+00
 -0.1414170E+02  0.5857690E+01  0.0000000E+00  0.2029728E+00 -0.1512318E+01 -0.1186264E-01  0.2026259E+00
 -0.1464780E+02  0.4443360E+01  0.0000000E+00  0.2020661E+00 -0.1503341E+01 -0.1362006E-01  0.2016066E+00
 -0.1501280E+02  0.2986230E+01  0.0000000E+00  0.2006084E+00 -0.1495604E+01 -0.1506995E-01  0.2000416E+00
 -0.1523320E+02  0.1500340E+01  0.0000000E+00  0.1986847E+00 -0.1489262E+01 -0.1618171E-01  0.1980246E+00
 -0.1530690E+02 -0.1338170E-05  0.0000000E+00  0.1967720E+00 -0.1484298E+01 -0.1699913E-01  0.1960364E+00
 -0.1523320E+02 -0.1500340E+01  0.0000000E+00  0.1954873E+00 -0.1480526E+01 -0.1762272E-01  0.1946914E+00
 -0.1501280E+02 -0.2986230E+01  0.0000000E+00  0.1943058E+00 -0.1478019E+01 -0.1800127E-01  0.1934702E+00
 -0.1464780E+02 -0.4443360E+01  0.0000000E+00  0.1926263E+00 -0.1476844E+01 -0.1807116E-01  0.1917767E+00
 -0.1414170E+02 -0.5857700E+01  0.0000000E+00  0.1901262E+00 -0.1477296E+01 -0.1775097E-01  0.1892958E+00
 -0.1349950E+02 -0.7215620E+01  0.0000000E+00  0.1867698E+00 -0.1479532E+01 -0.1702187E-01  0.1859925E+00
 -0.1272720E+02 -0.8504060E+01  0.0000000E+00  0.1830407E+00 -0.1483305E+01 -0.1599396E-01  0.1823406E+00
 -0.1183240E+02 -0.9710600E+01  0.0000000E+00  0.1798557E+00 -0.1487694E+01 -0.1492925E-01  0.1792350E+00
 -0.1082360E+02 -0.1082360E+02  0.0000000E+00  0.1764465E+00 -0.1493025E+01 -0.1370857E-01  0.1759131E+00
 -0.9710600E+01 -0.1183240E+02  0.0000000E+00  0.1710826E+00 -0.1500567E+01 -0.1200508E-01  0.1706608E+00
 -0.8504050E+01 -0.1272720E+02  0.0000000E+00  0.1661681E+00 -0.1508467E+01 -0.1035044E-01  0.1658454E+00
 -0.7215620E+01 -0.1349950E+02  0.0000000E+00  0.1591137E+00 -0.1519280E+01 -0.8193326E-02  0.1589026E+00
 -0.5857690E+01 -0.1414170E+02  0.0000000E+00  0.1486805E+00 -0.1534493E+01 -0.5396373E-02  0.1485825E+00
 -0.4443360E+01 -0.1464780E+02  0.0000000E+00  0.1335544E+00 -0.1557869E+01 -0.1726446E-02  0.1335432E+00
 -0.2986230E+01 -0.1501280E+02  0.0000000E+00  0.1035569E+00 -0.1620065E+01  0.5100084E-02  0.1034313E+00
 -0.1500340E+01 -0.1523320E+02  0.0000000E+00  0.2898031E-01 -0.3050603E+01  0.2886043E-01  0.2633266E-02
  0.1825330E-06 -0.1530690E+02  0.0000000E+00  0.6676948E-01  0.2260610E+01  0.4249164E-01 -0.5150363E-01
  0.1500340E+01 -0.1523320E+02  0.0000000E+00  0.1063372E+00  0.2088209E+01  0.5259793E-01 -0.9241787E-01
  0.2986230E+01 -0.1501280E+02  0.0000000E+00  0.1466807E+00  0.1995645E+01  0.6045926E-01 -0.1336410E+00
  0.4443360E+01 -0.1464780E+02  0.0000000E+00  0.1518314E+00  0.1973727E+01  0.5953546E-01 -0.1396722E+00
  0.5857700E+01 -0.1414170E+02  0.0000000E+00  0.1528744E+00  0.1962314E+01  0.5833558E-01 -0.1413065E+00
  0.7215620E+01 -0.1349950E+02  0.0000000E+00  0.1537831E+00  0.1953861E+01  0.5747874E-01 -0.1426374E+00
  0.8504060E+01 -0.1272720E+02  0.0000000E+00  0.1528914E+00  0.1949095E+01  0.5646893E-01 -0.1420811E+00
  0.9710600E+01 -0.1183240E+02  0.0000000E+00  0.1512424E+00  0.1945918E+01  0.5541310E-01 -0.1407255E+00
  0.1082360E+02 -0.1082360E+02  0.0000000E+00  0.1507632E+00  0.1941909E+01  0.5467464E-01 -0.1404999E+00
  0.1183240E+02 -0.9710590E+01  0.0000000E+00  0.1494943E+00  0.1938770E+01  0.5377688E-01 -0.1394869E+00
  0.1272720E+02 -0.8504060E+01  0.0000000E+00  0.1481978E+00  0.1935745E+01  0.5289199E-01 -0.1384378E+00
  0.1349950E+02 -0.7215620E+01  0.0000000E+00  0.1473413E+00  0.1932089E+01  0.5208273E-01 -0.1378290E+00
  0.1414170E+02 -0.5857700E+01  0.0000000E+00  0.1465041E+00  0.1927930E+01  0.5121646E-01 -0.1372601E+00
  0.1464780E+02 -0.4443350E+01  0.0000000E+00  0.1451872E+00  0.1923685E+01  0.5017819E-01 -0.1362405E+00
  0.1501280E+02 -0.2986230E+01  0.0000000E+00  0.1433071E+00  0.1919499E+01  0.4896505E-01 -0.1346824E+00
  0.1523320E+02 -0.1500330E+01  0.0000000E+00  0.1409687E+00  0.1915412E+01  0.4762414E-01 -0.1326805E+00
  0.1530690E+02  0.0000000E+00 -0.2568960E-01  0.1385191E+00  0.1910385E+01  0.4614054E-01 -0.1306085E+00
  0.1523320E+02  0.1500340E+01 -0.2568960E-01  0.1367362E+00  0.1902599E+01  0.4454150E-01 -0.1292781E+00
  0.1501280E+02  0.2986230E+01 -0.2568960E-01  0.1350328E+00  0.1893274E+01  0.4279423E-01 -0.1280723E+00
  0.1464780E+02  0.4443360E+01 -0.2568960E-01  0.1328556E+00  0.1883847E+01  0.4091451E-01 -0.1263986E+00
  0.1414170E+02  0.5857700E+01 -0.2568960E-01  0.1299336E+00  0.1875506E+01  0.3898216E-01 -0.1239481E+00
  0.1349950E+02  0.7215620E+01 -0.2568960E-01  0.1262408E+00  0.1868561E+01  0.3703702E-01 -0.1206855E+00
  0.1272720E+02  0.8504060E+01 -0.2568960E-01  0.1222149E+00  0.1861683E+01  0.3505146E-01 -0.1170806E+00
  0.1183240E+02  0.9710600E+01 -0.2568960E-01  0.1186597E+00  0.1851546E+01  0.3287779E-01 -0.1140139E+00
  0.1082360E+02  0.1082360E+02 -0.2568960E-01  0.1148773E+00  0.1840249E+01  0.3058079E-01 -0.1107321E+00
  0.9710590E+01  0.1183240E+02 -0.2568960E-01  0.1092872E+00  0.1833124E+01  0.2834135E-01 -0.1055484E+00
  0.8504060E+01  0.1272720E+02 -0.2568960E-01  0.1040784E+00  0.1822770E+01  0.2594837E-01 -0.1007919E+00
  0.7215620E+01  0.1349950E+02 -0.2568960E-01  0.9687927E-01  0.1817818E+01  0.2368861E-01 -0.9393850E-01
  0.5857700E+01  0.1414170E+02 -0.2568960E-01  0.8645318E-01  0.1823228E+01  0.2159250E-01 -0.8371330E-01
  0.4443360E+01  0.1464780E+02 -0.2568960E-01  0.7165189E-01  0.1852255E+01  0.1990181E-01 -0.6883249E-01
  0.2986230E+01  0.1501280E+02 -0.2568960E-01  0.4376381E-01  0.2043635E+01  0.1993071E-01 -0.3896200E-01
  0.1500340E+01  0.1523320E+02 -0.2568960E-01  0.6799259E-01 -0.2019654E+01  0.2950445E-01  0.6125749E-01
 -0.6690860E-06  0.1530690E+02 -0.2568960E-01  0.1198133E+00 -0.1846340E+01  0.3259762E-01  0.1152936E+00
 -0.1500340E+01  0.1523320E+02 -0.2568960E-01  0.1596899E+00 -0.1776106E+01  0.3255598E-01  0.1563360E+00
 -0.2986230E+01  0.1501280E+02 -0.2568960E-01  0.2000135E+00 -0.1710602E+01  0.2787201E-01  0.1980620E+00
 -0.4443360E+01  0.1464780E+02 -0.2568960E-01  0.2054257E+00 -0.1673686E+01  0.2109885E-01  0.2043393E+00
 -0.5857700E+01  0.1414170E+02 -0.2568960E-01  0.2066954E+00 -0.1645307E+01  0.1538676E-01  0.2061219E+00
 -0.7215620E+01  0.1349950E+02 -0.2568960E-01  0.2078246E+00 -0.1621422E+01  0.1051673E-01  0.2075583E+00
 -0.8504060E+01  0.1272720E+02 -0.2568960E-01  0.2071766E+00 -0.1600108E+01  0.6071898E-02  0.2070876E+00
 -0.9710590E+01  0.1183240E+02 -0.2568960E-01  0.2058170E+00 -0.1580724E+01  0.2043265E-02  0.2058068E+00
 -0.1082360E+02  0.1082360E+02 -0.2568960E-01  0.2056292E+00 -0.1563676E+01 -0.1464159E-02  0.2056240E+00
 -0.1183240E+02  0.9710590E+01 -0.2568960E-01  0.2047040E+00 -0.1548205E+01 -0.4624240E-02  0.2046518E+00
 -0.1272720E+02  0.8504060E+01 -0.2568960E-01  0.2037664E+00 -0.1534451E+01 -0.7404319E-02  0.2036318E+00
 -0.1349950E+02  0.7215620E+01 -0.2568960E-01  0.2032749E+00 -0.1522572E+01 -0.9799067E-02  0.2030386E+00
 -0.1414170E+02  0.5857690E+01 -0.2568960E-01  0.2028211E+00 -0.1512321E+01 -0.1185335E-01  0.2024745E+00
 -0.1464780E+02  0.4443360E+01 -0.2568960E-01  0.2019107E+00 -0.1503338E+01 -0.1361031E-01  0.2014515E+00
 -0.1501280E+02  0.2986230E+01 -0.2568960E-01  0.2004523E+00 -0.1495606E+01 -0.1505795E-01  0.1998859E+00
 -0.1523320E+02  0.1500340E+01 -0.2568960E-01  0.1985314E+00 -0.1489261E+01 -0.1616946E-01  0.1978718E+00
 -0.1530690E+02 -0.1338170E-05 -0.2568960E-01  0.1966215E+00 -0.1484300E+01 -0.1698586E-01  0.1958864E+00
 -0.1523320E+02 -0.1500340E+01 -0.2568960E-01  0.1953361E+00 -0.1480528E+01 -0.1760865E-01  0.1945408E+00
 -0.1501280E+02 -0.2986230E+01 -0.2568960E-01  0.1941539E+00 -0.1478020E+01 -0.1798713E-01  0.1933189E+00
 -0.1464780E+02 -0.4443360E+01 -0.2568960E-01  0.1924772E+00 -0.1476845E+01 -0.1805688E-01  0.1916284E+00
 -0.1414170E+02 -0.5857700E+01 -0.2568960E-01  0.1899838E+00 -0.1477306E+01 -0.1773579E-01  0.1891542E+00
 -0.1349950E+02 -0.7215620E+01 -0.2568960E-01  0.1866379E+00 -0.1479543E+01 -0.1700776E-01  0.1858613E+00
 -0.1272720E+02 -0.8504060E+01 -0.2568960E-01  0.1829187E+00 -0.1483302E+01 -0.1598399E-01  0.1822190E+00
 -0.1183240E+02 -0.9710600E+01 -0.2568960E-01  0.1797340E+00 -0.1487690E+01 -0.1491989E-01  0.1791136E+00
 -0.1082360E+02 -0.1082360E+02 -0.2568960E-01  0.1763216E+00 -0.1493027E+01 -0.1369859E-01  0.1757887E+00
 -0.9710600E+01 -0.1183240E+02 -0.2568960E-01  0.1709742E+00 -0.1500560E+01 -0.1199878E-01  0.1705527E+00
 -0.8504050E+01 -0.1272720E+02 -0.2568960E-01  0.1660568E+00 -0.1508463E+01 -0.1034413E-01  0.1657344E+00
 -0.7215620E+01 -0.1349950E+02 -0.2568960E-01  0.1590149E+00 -0.1519264E+01 -0.8190734E-02  0.1588038E+00
 -0.5857690E+01 -0.1414170E+02 -0.2568960E-01  0.1485808E+00 -0.1534490E+01 -0.5393180E-02  0.1484829E+00
 -0.4443360E+01 -0.1464780E+02 -0.2568960E-01  0.1334760E+00 -0.1557844E+01 -0.1728722E-02  0.1334648E+00
 -0.2986230E+01 -0.1501280E+02 -0.2568960E-01  0.1034877E+00 -0.1620070E+01  0.5097199E-02  0.1033621E+00
 -0.1500340E+01 -0.1523320E+02 -0.2568960E-01  0.2895791E-01 -0.3049617E+01  0.2883551E-01  0.2659681E-02
  0.1825330E-06 -0.1530690E+02 -0.2568960E-01  0.6672153E-01  0.2260625E+01  0.4246192E-01 -0.5146598E-01
  0.1500340E+01 -0.1523320E+02 -0.2568960E-01  0.1062859E+00  0.2088151E+01  0.5256720E-01 -0.9237634E-01
  0.2986230E+01 -0.1501280E+02 -0.2568960E-01  0.1466029E+00  0.1995618E+01  0.6042366E-01 -0.1335717E+00
  0.4443360E+01 -0.1464780E+02 -0.2568960E-01  0.1517441E+00  0.1973708E+01  0.5949869E-01 -0.1395929E+00
  0.5857700E+01 -0.1414170E+02 -0.2568960E-01  0.1527800E+00  0.1962300E+01  0.5829766E-01 -0.1412201E+00
  0.7215620E+01 -0.1349950E+02 -0.2568960E-01  0.1536848E+00  0.1953857E+01  0.5744141E-01 -0.1425464E+00
  0.8504060E+01 -0.1272720E+02 -0.2568960E-01  0.1527906E+00  0.1949094E+01  0.5643157E-01 -0.1419874E+00
  0.9710600E+01 -0.1183240E+02 -0.2568960E-01  0.1511485E+00  0.1945909E+01  0.5537737E-01 -0.1406386E+00
  0.1082360E+02 -0.1082360E+02 -0.2568960E-01  0.1506597E+00  0.1941907E+01  0.5463689E-01 -0.1404036E+00
  0.1183240E+02 -0.9710590E+01 -0.2568960E-01  0.1493937E+00  0.1938768E+01  0.5374052E-01 -0.1393931E+00
  0.1272720E+02 -0.8504060E+01 -0.2568960E-01  0.1480982E+00  0.1935747E+01  0.5285670E-01 -0.1383447E+00
  0.1349950E+02 -0.7215620E+01 -0.2568960E-01  0.1472373E+00  0.1932096E+01  0.5204699E-01 -0.1377314E+00
  0.1414170E+02 -0.5857700E+01 -0.2568960E-01  0.1463950E+00  0.1927940E+01  0.5117965E-01 -0.1371573E+00
  0.1464780E+02 -0.4443350E+01 -0.2568960E-01  0.1450737E+00  0.1923701E+01  0.5014104E-01 -0.1361332E+00
  0.1501280E+02 -0.2986230E+01 -0.2568960E-01  0.1431938E+00  0.1919515E+01  0.4892849E-01 -0.1345751E+00
  0.1523320E+02 -0.1500330E+01 -0.2568960E-01  0.1408579E+00  0.1915434E+01  0.4758958E-01 -0.1325752E+00
  0.1530690E+02  0.0000000E+00 -0.1027320E+00  0.1382077E+00  0.1910418E+01  0.4604117E-01 -0.1303134E+00
  0.1523320E+02  0.1500340E+01 -0.1027320E+00  0.1364252E+00  0.1902648E+01  0.4444655E-01 -0.1289819E+00
  0.1501280E+02  0.2986230E+01 -0.1027320E+00  0.1347207E+00  0.1893338E+01  0.4270350E-01 -0.1277736E+00
  0.1464780E+02  0.4443360E+01 -0.1027320E+00  0.1325512E+00  0.1883916E+01  0.4082956E-01 -0.1261062E+00
  0.1414170E+02  0.5857700E+01 -0.1027320E+00  0.1296490E+00  0.1875547E+01  0.3890190E-01 -0.1236750E+00
  0.1349950E+02  0.7215620E+01 -0.1027320E+00  0.1259859E+00  0.1868539E+01  0.3695957E-01 -0.1204427E+00
  0.1272720E+02  0.8504060E+01 -0.1027320E+00  0.1219861E+00  0.1861588E+01  0.3497475E-01 -0.1168647E+00
  0.1183240E+02  0.9710600E+01 -0.1027320E+00  0.1184343E+00  0.1851478E+01  0.3280754E-01 -0.1137996E+00
  0.1082360E+02  0.1082360E+02 -0.1027320E+00  0.1146437E+00  0.1840241E+01  0.3051770E-01 -0.1105072E+00
  0.9710590E+01  0.1183240E+02 -0.1027320E+00  0.1090999E+00  0.1832991E+01  0.2827875E-01 -0.1053712E+00
  0.8504060E+01  0.1272720E+02 -0.1027320E+00  0.1038828E+00  0.1822711E+01  0.2589372E-01 -0.1006040E+00
  0.7215620E+01  0.1349950E+02 -0.1027320E+00  0.9670245E-01  0.1817724E+01  0.2363659E-01 -0.9376927E-01
  0.5857700E+01  0.1414170E+02 -0.1027320E+00  0.8629564E-01  0.1823153E+01  0.2154683E-01 -0.8356238E-01
  0.4443360E+01  0.1464780E+02 -0.1027320E+00  0.7154962E-01  0.1852020E+01  0.1985727E-01 -0.6873891E-01
  0.2986230E+01  0.1501280E+02 -0.1027320E+00  0.4367574E-01  0.2043718E+01  0.1989383E-01 -0.3888194E-01
  0.1500340E+01  0.1523320E+02 -0.1027320E+00  0.6775422E-01 -0.2020178E+01  0.2943300E-01  0.6102732E-01
 -0.6690860E-06  0.1530690E+02 -0.1027320E+00  0.1195629E+00 -0.1846368E+01  0.3253269E-01  0.1150518E+00
 -0.1500340E+01  0.1523320E+02 -0.1027320E+00  0.1594010E+00 -0.1776056E+01  0.3248930E-01  0.1560548E+00
 -0.2986230E+01  0.1501280E+02 -0.1027320E+00  0.1996490E+00 -0.1710624E+01  0.2782558E-01  0.1977004E+00
 -0.4443360E+01  0.1464780E+02 -0.1027320E+00  0.2050455E+00 -0.1673702E+01  0.2106305E-01  0.2039608E+00
 -0.5857700E+01  0.1414170E+02 -0.1027320E+00  0.2063022E+00 -0.1645331E+01  0.1536234E-01  0.2057294E+00
 -0.7215620E+01  0.1349950E+02 -0.1027320E+00  0.2074027E+00 -0.1621433E+01  0.1049762E-01  0.2071368E+00
 -0.8504060E+01  0.1272720E+02 -0.1027320E+00  0.2067580E+00 -0.1600125E+01  0.6062994E-02  0.2066691E+00
 -0.9710590E+01  0.1183240E+02 -0.1027320E+00  0.2054186E+00 -0.1580744E+01  0.2043481E-02  0.2054084E+00
 -0.1082360E+02  0.1082360E+02 -0.1027320E+00  0.2052030E+00 -0.1563692E+01 -0.1457714E-02  0.2051978E+00
 -0.1183240E+02  0.9710590E+01 -0.1027320E+00  0.2042868E+00 -0.1548228E+01 -0.4610107E-02  0.2042348E+00
 -0.1272720E+02  0.8504060E+01 -0.1027320E+00  0.2033538E+00 -0.1534475E+01 -0.7384484E-02  0.2032196E+00
 -0.1349950E+02  0.7215620E+01 -0.1027320E+00  0.2028507E+00 -0.1522584E+01 -0.9776200E-02  0.2026150E+00
 -0.1414170E+02  0.5857690E+01 -0.1027320E+00  0.2023781E+00 -0.1512323E+01 -0.1182688E-01  0.2020322E+00
 -0.1464780E+02  0.4443360E+01 -0.1027320E+00  0.2014559E+00 -0.1503338E+01 -0.1357967E-01  0.2009977E+00
 -0.1501280E+02  0.2986230E+01 -0.1027320E+00  0.1999962E+00 -0.1495602E+01 -0.1502444E-01  0.1994310E+00
 -0.1523320E+02  0.1500340E+01 -0.1027320E+00  0.1980838E+00 -0.1489259E+01 -0.1613323E-01  0.1974257E+00
 -0.1530690E+02 -0.1338170E-05 -0.1027320E+00  0.1961826E+00 -0.1484298E+01 -0.1694823E-01  0.1954491E+00
 -0.1523320E+02 -0.1500340E+01 -0.1027320E+00  0.1948958E+00 -0.1480531E+01 -0.1756848E-01  0.1941023E+00
 -0.1501280E+02 -0.2986230E+01 -0.1027320E+00  0.1937113E+00 -0.1478036E+01 -0.1794305E-01  0.1928785E+00
 -0.1464780E+02 -0.4443360E+01 -0.1027320E+00  0.1920402E+00 -0.1476866E+01 -0.1801197E-01  0.1911937E+00
 -0.1414170E+02 -0.5857700E+01 -0.1027320E+00  0.1895660E+00 -0.1477323E+01 -0.1769358E-01  0.1887385E+00
 -0.1349950E+02 -0.7215620E+01 -0.1027320E+00  0.1862505E+00 -0.1479547E+01 -0.1697169E-01  0.1854757E+00
 -0.1272720E+02 -0.8504060E+01 -0.1027320E+00  0.1825598E+00 -0.1483292E+01 -0.1595445E-01  0.1818613E+00
 -0.1183240E+02 -0.9710600E+01 -0.1027320E+00  0.1793760E+00 -0.1487684E+01 -0.1489116E-01  0.1787568E+00
 -0.1082360E+02 -0.1082360E+02 -0.1027320E+00  0.1759535E+00 -0.1493029E+01 -0.1366966E-01  0.1754217E+00
 -0.9710600E+01 -0.1183240E+02 -0.1027320E+00  0.1706545E+00 -0.1500535E+01 -0.1198050E-01  0.1702335E+00
 -0.8504050E+01 -0.1272720E+02 -0.1027320E+00  0.1657269E+00 -0.1508457E+01 -0.1032460E-01  0.1654050E+00
 -0.7215620E+01 -0.1349950E+02 -0.1027320E+00  0.1587032E+00 -0.1519246E+01 -0.8177625E-02  0.1584924E+00
 -0.5857690E+01 -0.1414170E+02 -0.1027320E+00  0.1482877E+00 -0.1534471E+01 -0.5385447E-02  0.1481899E+00
 -0.4443360E+01 -0.1464780E+02 -0.1027320E+00  0.1332417E+00 -0.1557778E+01 -0.1734570E-02  0.1332304E+00
 -0.2986230E+01 -0.1501280E+02 -0.1027320E+00  0.1032652E+00 -0.1620091E+01  0.5088337E-02  0.1031398E+00
 -0.1500340E+01 -0.1523320E+02 -0.1027320E+00  0.2888521E-01 -0.3046221E+01  0.2875394E-01  0.2750667E-02
  0.1825330E-06 -0.1530690E+02 -0.1027320E+00  0.6658720E-01  0.2260584E+01  0.4237433E-01 -0.5136411E-01
  0.1500340E+01 -0.1523320E+02 -0.1027320E+00  0.1061118E+00  0.2087986E+01  0.5246589E-01 -0.9223367E-01
  0.2986230E+01 -0.1501280E+02 -0.1027320E+00  0.1463560E+00  0.1995540E+01  0.6031144E-01 -0.1333514E+00
  0.4443360E+01 -0.1464780E+02 -0.1027320E+00  0.1514827E+00  0.1973641E+01  0.5938676E-01 -0.1393565E+00
  0.5857700E+01 -0.1414170E+02 -0.1027320E+00  0.1525060E+00  0.1962247E+01  0.5818557E-01 -0.1409699E+00
  0.7215620E+01 -0.1349950E+02 -0.1027320E+00  0.1533828E+00  0.1953838E+01  0.5732580E-01 -0.1422675E+00
  0.8504060E+01 -0.1272720E+02 -0.1027320E+00  0.1524922E+00  0.1949073E+01  0.5631833E-01 -0.1417114E+00
  0.9710600E+01 -0.1183240E+02 -0.1027320E+00  0.1508707E+00  0.1945864E+01  0.5526935E-01 -0.1403826E+00
  0.1082360E+02 -0.1082360E+02 -0.1027320E+00  0.1503538E+00  0.1941893E+01  0.5452399E-01 -0.1401193E+00
  0.1183240E+02 -0.9710590E+01 -0.1027320E+00  0.1490989E+00  0.1938751E+01  0.5363199E-01 -0.1391190E+00
  0.1272720E+02 -0.8504060E+01 -0.1027320E+00  0.1478088E+00  0.1935723E+01  0.5275019E-01 -0.1380756E+00
  0.1349950E+02 -0.7215620E+01 -0.1027320E+00  0.1469358E+00  0.1932086E+01  0.5193894E-01 -0.1374499E+00
  0.1414170E+02 -0.5857700E+01 -0.1027320E+00  0.1460757E+00  0.1927957E+01  0.5107031E-01 -0.1368573E+00
  0.1464780E+02 -0.4443350E+01 -0.1027320E+00  0.1447439E+00  0.1923736E+01  0.5003185E-01 -0.1358220E+00
  0.1501280E+02 -0.2986230E+01 -0.1027320E+00  0.1428631E+00  0.1919557E+01  0.4882108E-01 -0.1342624E+00
  0.1523320E+02 -0.1500330E+01 -0.1027320E+00  0.1405369E+00  0.1915469E+01  0.4748585E-01 -0.1322714E+00
  0.1530690E+02  0.0000000E+00 -0.2310450E+00  0.1376885E+00  0.1910465E+01  0.4587433E-01 -0.1298217E+00
  0.1523320E+02  0.1500340E+01 -0.2310450E+00  0.1359062E+00  0.1902722E+01  0.4428694E-01 -0.1284880E+00
  0.1501280E+02  0.2986230E+01 -0.2310450E+00  0.1341999E+00  0.1893455E+01  0.4255330E-01 -0.1272746E+00
  0.1464780E+02  0.4443360E+01 -0.2310450E+00  0.1320435E+00  0.1884039E+01  0.4068855E-01 -0.1256181E+00
  0.1414170E+02  0.5857700E+01 -0.2310450E+00  0.1291729E+00  0.1875622E+01  0.3876823E-01 -0.1232180E+00
  0.1349950E+02  0.7215620E+01 -0.2310450E+00  0.1255583E+00  0.1868509E+01  0.3683057E-01 -0.1200350E+00
  0.1272720E+02  0.8504060E+01 -0.2310450E+00  0.1216026E+00  0.1861458E+01  0.3484965E-01 -0.1165019E+00
  0.1183240E+02  0.9710600E+01 -0.2310450E+00  0.1180541E+00  0.1851374E+01  0.3269042E-01 -0.1134377E+00
  0.1082360E+02  0.1082360E+02 -0.2310450E+00  0.1142507E+00  0.1840232E+01  0.3041208E-01 -0.1101287E+00
  0.9710590E+01  0.1183240E+02 -0.2310450E+00  0.1087838E+00  0.1832788E+01  0.2817551E-01 -0.1050716E+00
  0.8504060E+01  0.1272720E+02 -0.2310450E+00  0.1035536E+00  0.1822619E+01  0.2580237E-01 -0.1002875E+00
  0.7215620E+01  0.1349950E+02 -0.2310450E+00  0.9640425E-01  0.1817586E+01  0.2355085E-01 -0.9348336E-01
  0.5857700E+01  0.1414170E+02 -0.2310450E+00  0.8603378E-01  0.1823038E+01  0.2147192E-01 -0.8331127E-01
  0.4443360E+01  0.1464780E+02 -0.2310450E+00  0.7136396E-01  0.1851717E+01  0.1978498E-01 -0.6856653E-01
  0.2986230E+01  0.1501280E+02 -0.2310450E+00  0.4355488E-01  0.2043461E+01  0.1982881E-01 -0.3877945E-01
  0.1500340E+01  0.1523320E+02 -0.2310450E+00  0.6747832E-01 -0.2020469E+01  0.2933083E-01  0.6077027E-01
 -0.6690860E-06  0.1530690E+02 -0.2310450E+00  0.1191414E+00 -0.1846396E+01  0.3242120E-01  0.1146453E+00
 -0.1500340E+01  0.1523320E+02 -0.2310450E+00  0.1589066E+00 -0.1776033E+01  0.3238495E-01  0.1555716E+00
 -0.2986230E+01  0.1501280E+02 -0.2310450E+00  0.1990507E+00 -0.1710651E+01  0.2774757E-01  0.1971072E+00
 -0.4443360E+01  0.1464780E+02 -0.2310450E+00  0.2044080E+00 -0.1673722E+01  0.2100169E-01  0.2033263E+00
 -0.5857700E+01  0.1414170E+02 -0.2310450E+00  0.2056466E+00 -0.1645359E+01  0.1531939E-01  0.2050752E+00
 -0.7215620E+01  0.1349950E+02 -0.2310450E+00  0.2067008E+00 -0.1621454E+01  0.1046660E-01  0.2064357E+00
 -0.8504060E+01  0.1272720E+02 -0.2310450E+00  0.2060605E+00 -0.1600147E+01  0.6047244E-02  0.2059718E+00
 -0.9710590E+01  0.1183240E+02 -0.2310450E+00  0.2047536E+00 -0.1580782E+01  0.2044627E-02  0.2047434E+00
 -0.1082360E+02  0.1082360E+02 -0.2310450E+00  0.2044915E+00 -0.1563712E+01 -0.1448727E-02  0.2044864E+00
 -0.1183240E+02  0.9710590E+01 -0.2310450E+00  0.2035918E+00 -0.1548258E+01 -0.4588325E-02  0.2035401E+00
 -0.1272720E+02  0.8504060E+01 -0.2310450E+00  0.2026651E+00 -0.1534510E+01 -0.7352280E-02  0.2025317E+00
 -0.1349950E+02  0.7215620E+01 -0.2310450E+00  0.2021415E+00 -0.1522607E+01 -0.9737259E-02  0.2019069E+00
 -0.1414170E+02  0.5857690E+01 -0.2310450E+00  0.2016391E+00 -0.1512331E+01 -0.1178219E-01  0.2012946E+00
 -0.1464780E+02  0.4443360E+01 -0.2310450E+00  0.2006987E+00 -0.1503334E+01 -0.1352934E-01  0.2002421E+00
 -0.1501280E+02  0.2986230E+01 -0.2310450E+00  0.1992366E+00 -0.1495592E+01 -0.1496930E-01  0.1986735E+00
 -0.1523320E+02  0.1500340E+01 -0.2310450E+00  0.1973380E+00 -0.1489251E+01 -0.1607421E-01  0.1966823E+00
 -0.1530690E+02 -0.1338170E-05 -0.2310450E+00  0.1954511E+00 -0.1484292E+01 -0.1688621E-01  0.1947202E+00
 -0.1523320E+02 -0.1500340E+01 -0.2310450E+00  0.1941618E+00 -0.1480543E+01 -0.1750003E-01  0.1933715E+00
 -0.1501280E+02 -0.2986230E+01 -0.2310450E+00  0.1929722E+00 -0.1478056E+01 -0.1787058E-01  0.1921430E+00
 -0.1464780E+02 -0.4443360E+01 -0.2310450E+00  0.1913115E+00 -0.1476899E+01 -0.1793730E-01  0.1904687E+00
 -0.1414170E+02 -0.5857700E+01 -0.2310450E+00  0.1888686E+00 -0.1477355E+01 -0.1762242E-01  0.1880447E+00
 -0.1349950E+02 -0.7215620E+01 -0.2310450E+00  0.1856037E+00 -0.1479561E+01 -0.1691009E-01  0.1848318E+00
 -0.1272720E+02 -0.8504060E+01 -0.2310450E+00  0.1819587E+00 -0.1483284E+01 -0.1590333E-01  0.1812624E+00
 -0.1183240E+02 -0.9710600E+01 -0.2310450E+00  0.1787764E+00 -0.1487677E+01 -0.1484258E-01  0.1781592E+00
 -0.1082360E+02 -0.1082360E+02 -0.2310450E+00  0.1753366E+00 -0.1493039E+01 -0.1361998E-01  0.1748068E+00
 -0.9710600E+01 -0.1183240E+02 -0.2310450E+00  0.1701179E+00 -0.1500503E+01 -0.1194833E-01  0.1696978E+00
 -0.8504050E+01 -0.1272720E+02 -0.2310450E+00  0.1651741E+00 -0.1508451E+01 -0.1029122E-01  0.1648532E+00
 -0.7215620E+01 -0.1349950E+02 -0.2310450E+00  0.1581821E+00 -0.1519220E+01 -0.8154764E-02  0.1579718E+00
 -0.5857690E+01 -0.1414170E+02 -0.2310450E+00  0.1478017E+00 -0.1534445E+01 -0.5371642E-02  0.1477041E+00
 -0.4443360E+01 -0.1464780E+02 -0.2310450E+00  0.1328353E+00 -0.1557698E+01 -0.1739845E-02  0.1328239E+00
 -0.2986230E+01 -0.1501280E+02 -0.2310450E+00  0.1029288E+00 -0.1620047E+01  0.5067233E-02  0.1028040E+00
 -0.1500340E+01 -0.1523320E+02 -0.2310450E+00  0.2878229E-01 -0.3045013E+01  0.2864816E-01  0.2775467E-02
  0.1825330E-06 -0.1530690E+02 -0.2310450E+00  0.6635961E-01  0.2260574E+01  0.4222898E-01 -0.5118898E-01
  0.1500340E+01 -0.1523320E+02 -0.2310450E+00  0.1058111E+00  0.2087797E+01  0.5229976E-01 -0.9198223E-01
  0.2986230E+01 -0.1501280E+02 -0.2310450E+00  0.1459531E+00  0.1995404E+01  0.6012732E-01 -0.1329926E+00
  0.4443360E+01 -0.1464780E+02 -0.2310450E+00  0.1510420E+00  0.1973544E+01  0.5920055E-01 -0.1389567E+00
  0.5857700E+01 -0.1414170E+02 -0.2310450E+00  0.1520475E+00  0.1962165E+01  0.5799912E-01 -0.1405508E+00
  0.7215620E+01 -0.1349950E+02 -0.2310450E+00  0.1528788E+00  0.1953808E+01  0.5713321E-01 -0.1418017E+00
  0.8504060E+01 -0.1272720E+02 -0.2310450E+00  0.1519929E+00  0.1949028E+01  0.5612754E-01 -0.1412499E+00
  0.9710600E+01 -0.1183240E+02 -0.2310450E+00  0.1504057E+00  0.1945792E+01  0.5508881E-01 -0.1399539E+00
  0.1082360E+02 -0.1082360E+02 -0.2310450E+00  0.1498431E+00  0.1941876E+01  0.5433630E-01 -0.1396442E+00
  0.1183240E+02 -0.9710590E+01 -0.2310450E+00  0.1486063E+00  0.1938727E+01  0.5345152E-01 -0.1386606E+00
  0.1272720E+02 -0.8504060E+01 -0.2310450E+00  0.1473245E+00  0.1935695E+01  0.5257341E-01 -0.1376247E+00
  0.1349950E+02 -0.7215620E+01 -0.2310450E+00  0.1464316E+00  0.1932079E+01  0.5175984E-01 -0.1369786E+00
  0.1414170E+02 -0.5857700E+01 -0.2310450E+00  0.1455427E+00  0.1927986E+01  0.5088791E-01 -0.1363565E+00
  0.1464780E+02 -0.4443350E+01 -0.2310450E+00  0.1441941E+00  0.1923793E+01  0.4984947E-01 -0.1353032E+00
  0.1501280E+02 -0.2986230E+01 -0.2310450E+00  0.1423125E+00  0.1919638E+01  0.4864379E-01 -0.1337409E+00
  0.1523320E+02 -0.1500330E+01 -0.2310450E+00  0.1400018E+00  0.1915531E+01  0.4731314E-01 -0.1317648E+00
  0.1530690E+02  0.0000000E+00 -0.4105000E+00  0.1369725E+00  0.1910527E+01  0.4564378E-01 -0.1291438E+00
  0.1523320E+02  0.1500340E+01 -0.4105000E+00  0.1351913E+00  0.1902823E+01  0.4406689E-01 -0.1278076E+00
  0.1501280E+02  0.2986230E+01 -0.4105000E+00  0.1334825E+00  0.1893606E+01  0.4234498E-01 -0.1265879E+00
  0.1464780E+02  0.4443360E+01 -0.4105000E+00  0.1313435E+00  0.1884200E+01  0.4049293E-01 -0.1249457E+00
  0.1414170E+02  0.5857700E+01 -0.4105000E+00  0.1285181E+00  0.1875719E+01  0.3858365E-01 -0.1225895E+00
  0.1349950E+02  0.7215620E+01 -0.4105000E+00  0.1249711E+00  0.1868463E+01  0.3665284E-01 -0.1194753E+00
  0.1272720E+02  0.8504060E+01 -0.4105000E+00  0.1210774E+00  0.1861261E+01  0.3467620E-01 -0.1160056E+00
  0.1183240E+02  0.9710600E+01 -0.4105000E+00  0.1175316E+00  0.1851223E+01  0.3252877E-01 -0.1129405E+00
  0.1082360E+02  0.1082360E+02 -0.4105000E+00  0.1137067E+00  0.1840213E+01  0.3026528E-01 -0.1096049E+00
  0.9710590E+01  0.1183240E+02 -0.4105000E+00  0.1083445E+00  0.1832509E+01  0.2803258E-01 -0.1046551E+00
  0.8504060E+01  0.1272720E+02 -0.4105000E+00  0.1030920E+00  0.1822521E+01  0.2567763E-01 -0.9984303E-01
  0.7215620E+01  0.1349950E+02 -0.4105000E+00  0.9596346E-01  0.1817508E+01  0.2343586E-01 -0.9305776E-01
  0.5857700E+01  0.1414170E+02 -0.4105000E+00  0.8564381E-01  0.1822981E+01  0.2136985E-01 -0.8293486E-01
  0.4443360E+01  0.1464780E+02 -0.4105000E+00  0.7105444E-01  0.1851591E+01  0.1969052E-01 -0.6827164E-01
  0.2986230E+01  0.1501280E+02 -0.4105000E+00  0.4336613E-01  0.2043309E+01  0.1973702E-01 -0.3861440E-01
  0.1500340E+01  0.1523320E+02 -0.4105000E+00  0.6713682E-01 -0.2020614E+01  0.2919119E-01  0.6045847E-01
 -0.6690860E-06  0.1530690E+02 -0.4105000E+00  0.1185189E+00 -0.1846439E+01  0.3225667E-01  0.1140448E+00
 -0.1500340E+01  0.1523320E+02 -0.4105000E+00  0.1581360E+00 -0.1776041E+01  0.3222915E-01  0.1548169E+00
 -0.2986230E+01  0.1501280E+02 -0.4105000E+00  0.1981402E+00 -0.1710660E+01  0.2762229E-01  0.1962053E+00
 -0.4443360E+01  0.1464780E+02 -0.4105000E+00  0.2034629E+00 -0.1673742E+01  0.2090859E-01  0.2023858E+00
 -0.5857700E+01  0.1414170E+02 -0.4105000E+00  0.2047075E+00 -0.1645396E+01  0.1525691E-01  0.2041381E+00
 -0.7215620E+01  0.1349950E+02 -0.4105000E+00  0.2057037E+00 -0.1621477E+01  0.1042067E-01  0.2054396E+00
 -0.8504060E+01  0.1272720E+02 -0.4105000E+00  0.2050901E+00 -0.1600176E+01  0.6024539E-02  0.2050016E+00
 -0.9710590E+01  0.1183240E+02 -0.4105000E+00  0.2038332E+00 -0.1580832E+01  0.2045611E-02  0.2038230E+00
 -0.1082360E+02  0.1082360E+02 -0.4105000E+00  0.2035080E+00 -0.1563745E+01 -0.1434971E-02  0.2035029E+00