 VARIABLES="X" "Y" "Z" "abs(eta) (m)" "angle(phi) (rad)" "PRE1" "PRE2"
ZONE N=   3200 ,E =    3136 ,F=FEPOINT,ET=QUADRILATERAL
  0.1672760E+02  0.0000000E+00  0.0000000E+00  0.3908292E+00  0.2189720E+01  0.2267430E+00 -0.3183317E+00
  0.1664710E+02  0.1639590E+01  0.0000000E+00  0.3909546E+00  0.2187795E+01  0.2262024E+00 -0.3188699E+00
  0.1640620E+02  0.3263390E+01  0.0000000E+00  0.3905565E+00  0.2182960E+01  0.2244293E+00 -0.3196339E+00
  0.1600730E+02  0.4855770E+01  0.0000000E+00  0.3876511E+00  0.2177648E+01  0.2210712E+00 -0.3184351E+00
  0.1545430E+02  0.6401380E+01  0.0000000E+00  0.3818486E+00  0.2172379E+01  0.2161064E+00 -0.3148117E+00
  0.1475240E+02  0.7885340E+01  0.0000000E+00  0.3734223E+00  0.2166791E+01  0.2096141E+00 -0.3090407E+00
  0.1390850E+02  0.9293360E+01  0.0000000E+00  0.3643598E+00  0.2158700E+01  0.2020803E+00 -0.3031858E+00
  0.1293060E+02  0.1061190E+02  0.0000000E+00  0.3553680E+00  0.2147442E+01  0.1937522E+00 -0.2979036E+00
  0.1182820E+02  0.1182820E+02  0.0000000E+00  0.3449652E+00  0.2134437E+01  0.1843037E+00 -0.2916045E+00
  0.1061190E+02  0.1293060E+02  0.0000000E+00  0.3316969E+00  0.2120197E+01  0.1732042E+00 -0.2828836E+00
  0.9293360E+01  0.1390850E+02  0.0000000E+00  0.3165288E+00  0.2104162E+01  0.1609343E+00 -0.2725631E+00
  0.7885330E+01  0.1475240E+02  0.0000000E+00  0.2967122E+00  0.2089163E+01  0.1470096E+00 -0.2577330E+00
  0.6401380E+01  0.1545430E+02  0.0000000E+00  0.2665596E+00  0.2081389E+01  0.1302661E+00 -0.2325613E+00
  0.4855770E+01  0.1600730E+02  0.0000000E+00  0.2261392E+00  0.2080719E+01  0.1103808E+00 -0.1973702E+00
  0.3263390E+01  0.1640620E+02  0.0000000E+00  0.1588403E+00  0.2125036E+01  0.8359720E-01 -0.1350621E+00
  0.1639590E+01  0.1664710E+02  0.0000000E+00  0.6304188E-01  0.2458748E+01  0.4890668E-01 -0.3977958E-01
 -0.7311870E-06  0.1672760E+02  0.0000000E+00  0.6256347E-01 -0.1804078E+01  0.1446287E-01  0.6086882E-01
 -0.1639590E+01  0.1664710E+02  0.0000000E+00  0.1628536E+00 -0.1460824E+01 -0.1787330E-01  0.1618698E+00
 -0.3263390E+01  0.1640620E+02  0.0000000E+00  0.2624688E+00 -0.1387612E+01 -0.4781184E-01  0.2580774E+00
 -0.4855770E+01  0.1600730E+02  0.0000000E+00  0.3292901E+00 -0.1349425E+01 -0.7230146E-01  0.3212545E+00
 -0.6401380E+01  0.1545430E+02  0.0000000E+00  0.3688005E+00 -0.1317975E+01 -0.9225034E-01  0.3570765E+00
 -0.7885340E+01  0.1475240E+02  0.0000000E+00  0.3982935E+00 -0.1290169E+01 -0.1103107E+00  0.3827130E+00
 -0.9293360E+01  0.1390850E+02  0.0000000E+00  0.4173579E+00 -0.1264449E+01 -0.1258660E+00  0.3979264E+00
 -0.1061190E+02  0.1293060E+02  0.0000000E+00  0.4317867E+00 -0.1241267E+01 -0.1397252E+00  0.4085544E+00
 -0.1182820E+02  0.1182820E+02  0.0000000E+00  0.4444509E+00 -0.1221007E+01 -0.1523133E+00  0.4175371E+00
 -0.1293060E+02  0.1061190E+02  0.0000000E+00  0.4545018E+00 -0.1202613E+01 -0.1635850E+00  0.4240423E+00
 -0.1390850E+02  0.9293360E+01  0.0000000E+00  0.4632091E+00 -0.1186904E+01 -0.1734869E+00  0.4294938E+00
 -0.1475240E+02  0.7885330E+01  0.0000000E+00  0.4720581E+00 -0.1174620E+01 -0.1821644E+00  0.4354939E+00
 -0.1545430E+02  0.6401370E+01  0.0000000E+00  0.4803507E+00 -0.1165209E+01 -0.1895263E+00  0.4413803E+00
 -0.1600730E+02  0.4855770E+01  0.0000000E+00  0.4860242E+00 -0.1157418E+01 -0.1952388E+00  0.4450858E+00
 -0.1640620E+02  0.3263390E+01  0.0000000E+00  0.4887719E+00 -0.1151032E+01 -0.1991967E+00  0.4463392E+00
 -0.1664710E+02  0.1639590E+01  0.0000000E+00  0.4890158E+00 -0.1146260E+01 -0.2014246E+00  0.4456058E+00
 -0.1672760E+02 -0.1462370E-05  0.0000000E+00  0.4888240E+00 -0.1144507E+01 -0.2021264E+00  0.4450773E+00
 -0.1664710E+02 -0.1639590E+01  0.0000000E+00  0.4890154E+00 -0.1146263E+01 -0.2014235E+00  0.4456059E+00
 -0.1640620E+02 -0.3263400E+01  0.0000000E+00  0.4887721E+00 -0.1151031E+01 -0.1991972E+00  0.4463392E+00
 -0.1600730E+02 -0.4855770E+01  0.0000000E+00  0.4860249E+00 -0.1157416E+01 -0.1952399E+00  0.4450860E+00
 -0.1545430E+02 -0.6401380E+01  0.0000000E+00  0.4803506E+00 -0.1165209E+01 -0.1895265E+00  0.4413801E+00
 -0.1475240E+02 -0.7885340E+01  0.0000000E+00  0.4720581E+00 -0.1174619E+01 -0.1821648E+00  0.4354938E+00
 -0.1390850E+02 -0.9293360E+01  0.0000000E+00  0.4632086E+00 -0.1186906E+01 -0.1734858E+00  0.4294937E+00
 -0.1293060E+02 -0.1061190E+02  0.0000000E+00  0.4545020E+00 -0.1202613E+01 -0.1635847E+00  0.4240426E+00
 -0.1182820E+02 -0.1182820E+02  0.0000000E+00  0.4444509E+00 -0.1221008E+01 -0.1523130E+00  0.4175373E+00
 -0.1061190E+02 -0.1293060E+02  0.0000000E+00  0.4317871E+00 -0.1241266E+01 -0.1397257E+00  0.4085546E+00
 -0.9293350E+01 -0.1390850E+02  0.0000000E+00  0.4173581E+00 -0.1264450E+01 -0.1258658E+00  0.3979266E+00
 -0.7885340E+01 -0.1475240E+02  0.0000000E+00  0.3982937E+00 -0.1290168E+01 -0.1103110E+00  0.3827132E+00
 -0.6401370E+01 -0.1545430E+02  0.0000000E+00  0.3688004E+00 -0.1317978E+01 -0.9224948E-01  0.3570767E+00
 -0.4855760E+01 -0.1600730E+02  0.0000000E+00  0.3292898E+00 -0.1349425E+01 -0.7230132E-01  0.3212543E+00
 -0.3263390E+01 -0.1640620E+02  0.0000000E+00  0.2624691E+00 -0.1387608E+01 -0.4781291E-01  0.2580774E+00
 -0.1639590E+01 -0.1664710E+02  0.0000000E+00  0.1628537E+00 -0.1460822E+01 -0.1787370E-01  0.1618699E+00
  0.1994750E-06 -0.1672760E+02  0.0000000E+00  0.6256398E-01 -0.1804090E+01  0.1446373E-01  0.6086913E-01
  0.1639600E+01 -0.1664710E+02  0.0000000E+00  0.6304207E-01  0.2458738E+01  0.4890645E-01 -0.3978017E-01
  0.3263390E+01 -0.1640620E+02  0.0000000E+00  0.1588400E+00  0.2125036E+01  0.8359694E-01 -0.1350618E+00
  0.4855770E+01 -0.1600730E+02  0.0000000E+00  0.2261393E+00  0.2080721E+01  0.1103812E+00 -0.1973701E+00
  0.6401380E+01 -0.1545430E+02  0.0000000E+00  0.2665603E+00  0.2081392E+01  0.1302673E+00 -0.2325615E+00
  0.7885340E+01 -0.1475240E+02  0.0000000E+00  0.2967127E+00  0.2089165E+01  0.1470105E+00 -0.2577331E+00
  0.9293360E+01 -0.1390850E+02  0.0000000E+00  0.3165286E+00  0.2104162E+01  0.1609340E+00 -0.2725630E+00
  0.1061190E+02 -0.1293060E+02  0.0000000E+00  0.3316969E+00  0.2120196E+01  0.1732039E+00 -0.2828838E+00
  0.1182820E+02 -0.1182820E+02  0.0000000E+00  0.3449650E+00  0.2134435E+01  0.1843028E+00 -0.2916047E+00
  0.1293060E+02 -0.1061190E+02  0.0000000E+00  0.3553675E+00  0.2147441E+01  0.1937516E+00 -0.2979033E+00
  0.1390850E+02 -0.9293360E+01  0.0000000E+00  0.3643600E+00  0.2158700E+01  0.2020805E+00 -0.3031859E+00
  0.1475240E+02 -0.7885330E+01  0.0000000E+00  0.3734225E+00  0.2166793E+01  0.2096146E+00 -0.3090406E+00
  0.1545430E+02 -0.6401380E+01  0.0000000E+00  0.3818486E+00  0.2172378E+01  0.2161063E+00 -0.3148118E+00
  0.1600730E+02 -0.4855760E+01  0.0000000E+00  0.3876511E+00  0.2177648E+01  0.2210713E+00 -0.3184350E+00
  0.1640620E+02 -0.3263390E+01  0.0000000E+00  0.3905565E+00  0.2182960E+01  0.2244293E+00 -0.3196339E+00
  0.1664710E+02 -0.1639590E+01  0.0000000E+00  0.3909549E+00  0.2187797E+01  0.2262030E+00 -0.3188698E+00
  0.1672760E+02  0.0000000E+00 -0.2568960E-01  0.3903697E+00  0.2189740E+01  0.2264827E+00 -0.3179529E+00
  0.1664710E+02  0.1639590E+01 -0.2568960E-01  0.3904923E+00  0.2187822E+01  0.2259435E+00 -0.3184867E+00
  0.1640620E+02  0.3263390E+01 -0.2568960E-01  0.3900909E+00  0.2182998E+01  0.2241739E+00 -0.3192443E+00
  0.1600730E+02  0.4855770E+01 -0.2568960E-01  0.3871937E+00  0.2177678E+01  0.2208201E+00 -0.3180526E+00
  0.1545430E+02  0.6401380E+01 -0.2568960E-01  0.3814107E+00  0.2172386E+01  0.2158607E+00 -0.3144491E+00
  0.1475240E+02  0.7885340E+01 -0.2568960E-01  0.3730174E+00  0.2166783E+01  0.2093841E+00 -0.3087074E+00
  0.1390850E+02  0.9293360E+01 -0.2568960E-01  0.3639801E+00  0.2158677E+01  0.2018628E+00 -0.3028744E+00
  0.1293060E+02  0.1061190E+02 -0.2568960E-01  0.3549963E+00  0.2147410E+01  0.1935399E+00 -0.2975982E+00
  0.1182820E+02  0.1182820E+02 -0.2568960E-01  0.3446012E+00  0.2134417E+01  0.1841033E+00 -0.2913005E+00
  0.1061190E+02  0.1293060E+02 -0.2568960E-01  0.3313552E+00  0.2120166E+01  0.1730171E+00 -0.2825975E+00
  0.9293360E+01  0.1390850E+02 -0.2568960E-01  0.3161980E+00  0.2104140E+01  0.1607600E+00 -0.2722818E+00
  0.7885330E+01  0.1475240E+02 -0.2568960E-01  0.2963932E+00  0.2089153E+01  0.1468491E+00 -0.2574573E+00
  0.6401380E+01  0.1545430E+02 -0.2568960E-01  0.2662979E+00  0.2081361E+01  0.1301319E+00 -0.2323366E+00
  0.4855770E+01  0.1600730E+02 -0.2568960E-01  0.2259116E+00  0.2080693E+01  0.1102645E+00 -0.1971746E+00
  0.3263390E+01  0.1640620E+02 -0.2568960E-01  0.1586857E+00  0.2124991E+01  0.8350967E-01 -0.1349344E+00
  0.1639590E+01  0.1664710E+02 -0.2568960E-01  0.6296296E-01  0.2458824E+01  0.4884847E-01 -0.3972608E-01
 -0.7311870E-06  0.1672760E+02 -0.2568960E-01  0.6249172E-01 -0.1804080E+01  0.1444642E-01  0.6079898E-01
 -0.1639590E+01  0.1664710E+02 -0.2568960E-01  0.1626592E+00 -0.1460822E+01 -0.1785233E-01  0.1616765E+00
 -0.3263390E+01  0.1640620E+02 -0.2568960E-01  0.2621966E+00 -0.1387619E+01 -0.4776021E-01  0.2578101E+00
 -0.4855770E+01  0.1600730E+02 -0.2568960E-01  0.3289435E+00 -0.1349439E+01 -0.7222098E-01  0.3209173E+00
 -0.6401380E+01  0.1545430E+02 -0.2568960E-01  0.3684205E+00 -0.1317988E+01 -0.9215079E-01  0.3567099E+00
 -0.7885340E+01  0.1475240E+02 -0.2568960E-01  0.3978581E+00 -0.1290179E+01 -0.1101864E+00  0.3822957E+00
 -0.9293360E+01  0.1390850E+02 -0.2568960E-01  0.4169132E+00 -0.1264461E+01 -0.1257273E+00  0.3975038E+00
 -0.1061190E+02  0.1293060E+02 -0.2568960E-01  0.4313329E+00 -0.1241282E+01 -0.1395722E+00  0.4081270E+00
 -0.1182820E+02  0.1182820E+02 -0.2568960E-01  0.4439745E+00 -0.1221015E+01 -0.1521465E+00  0.4170909E+00
 -0.1293060E+02  0.1061190E+02 -0.2568960E-01  0.4540194E+00 -0.1202627E+01 -0.1634050E+00  0.4235946E+00
 -0.1390850E+02  0.9293360E+01 -0.2568960E-01  0.4627154E+00 -0.1186920E+01 -0.1732950E+00  0.4290389E+00
 -0.1475240E+02  0.7885330E+01 -0.2568960E-01  0.4715396E+00 -0.1174628E+01 -0.1819607E+00  0.4350172E+00
 -0.1545430E+02  0.6401370E+01 -0.2568960E-01  0.4797996E+00 -0.1165207E+01 -0.1893099E+00  0.4408735E+00
 -0.1600730E+02  0.4855770E+01 -0.2568960E-01  0.4854518E+00 -0.1157407E+01 -0.1950135E+00  0.4445595E+00
 -0.1640620E+02  0.3263390E+01 -0.2568960E-01  0.4881917E+00 -0.1151019E+01 -0.1989660E+00  0.4458068E+00
 -0.1664710E+02  0.1639590E+01 -0.2568960E-01  0.4884404E+00 -0.1146249E+01 -0.2011928E+00  0.4450792E+00
 -0.1672760E+02 -0.1462370E-05 -0.2568960E-01  0.4882520E+00 -0.1144497E+01 -0.2018943E+00  0.4445545E+00
 -0.1664710E+02 -0.1639590E+01 -0.2568960E-01  0.4884403E+00 -0.1146249E+01 -0.2011926E+00  0.4450792E+00
 -0.1640620E+02 -0.3263400E+01 -0.2568960E-01  0.4881921E+00 -0.1151018E+01 -0.1989665E+00  0.4458070E+00
 -0.1600730E+02 -0.4855770E+01 -0.2568960E-01  0.4854520E+00 -0.1157406E+01 -0.1950139E+00  0.4445596E+00
 -0.1545430E+02 -0.6401380E+01 -0.2568960E-01  0.4797994E+00 -0.1165208E+01 -0.1893093E+00  0.4408736E+00
 -0.1475240E+02 -0.7885340E+01 -0.2568960E-01  0.4715394E+00 -0.1174628E+01 -0.1819607E+00  0.4350170E+00
 -0.1390850E+02 -0.9293360E+01 -0.2568960E-01  0.4627152E+00 -0.1186920E+01 -0.1732950E+00  0.4290387E+00
 -0.1293060E+02 -0.1061190E+02 -0.2568960E-01  0.4540195E+00 -0.1202628E+01 -0.1634050E+00  0.4235948E+00
 -0.1182820E+02 -0.1182820E+02 -0.2568960E-01  0.4439745E+00 -0.1221016E+01 -0.1521463E+00  0.4170910E+00
 -0.1061190E+02 -0.1293060E+02 -0.2568960E-01  0.4313333E+00 -0.1241281E+01 -0.1395727E+00  0.4081272E+00
 -0.9293350E+01 -0.1390850E+02 -0.2568960E-01  0.4169135E+00 -0.1264461E+01 -0.1257271E+00  0.3975042E+00
 -0.7885340E+01 -0.1475240E+02 -0.2568960E-01  0.3978584E+00 -0.1290178E+01 -0.1101867E+00  0.3822959E+00
 -0.6401370E+01 -0.1545430E+02 -0.2568960E-01  0.3684205E+00 -0.1317990E+01 -0.9215019E-01  0.3567100E+00
 -0.4855760E+01 -0.1600730E+02 -0.2568960E-01  0.3289438E+00 -0.1349438E+01 -0.7222128E-01  0.3209176E+00
 -0.3263390E+01 -0.1640620E+02 -0.2568960E-01  0.2621966E+00 -0.1387620E+01 -0.4776012E-01  0.2578101E+00
 -0.1639590E+01 -0.1664710E+02 -0.2568960E-01  0.1626596E+00 -0.1460818E+01 -0.1785294E-01  0.1616769E+00
  0.1994750E-06 -0.1672760E+02 -0.2568960E-01  0.6249178E-01 -0.1804078E+01  0.1444634E-01  0.6079906E-01
  0.1639600E+01 -0.1664710E+02 -0.2568960E-01  0.6296282E-01  0.2458823E+01  0.4884835E-01 -0.3972600E-01
  0.3263390E+01 -0.1640620E+02 -0.2568960E-01  0.1586856E+00  0.2124990E+01  0.8350949E-01 -0.1349344E+00
  0.4855770E+01 -0.1600730E+02 -0.2568960E-01  0.2259109E+00  0.2080691E+01  0.1102638E+00 -0.1971741E+00
  0.6401380E+01 -0.1545430E+02 -0.2568960E-01  0.2662975E+00  0.2081360E+01  0.1301313E+00 -0.2323364E+00
  0.7885340E+01 -0.1475240E+02 -0.2568960E-01  0.2963931E+00  0.2089153E+01  0.1468491E+00 -0.2574573E+00
  0.9293360E+01 -0.1390850E+02 -0.2568960E-01  0.3161983E+00  0.2104143E+01  0.1607610E+00 -0.2722816E+00
  0.1061190E+02 -0.1293060E+02 -0.2568960E-01  0.3313554E+00  0.2120167E+01  0.1730174E+00 -0.2825976E+00
  0.1182820E+02 -0.1182820E+02 -0.2568960E-01  0.3446015E+00  0.2134420E+01  0.1841044E+00 -0.2913001E+00
  0.1293060E+02 -0.1061190E+02 -0.2568960E-01  0.3549966E+00  0.2147411E+01  0.1935401E+00 -0.2975984E+00
  0.1390850E+02 -0.9293360E+01 -0.2568960E-01  0.3639799E+00  0.2158676E+01  0.2018625E+00 -0.3028744E+00
  0.1475240E+02 -0.7885330E+01 -0.2568960E-01  0.3730183E+00  0.2166785E+01  0.2093852E+00 -0.3087077E+00
  0.1545430E+02 -0.6401380E+01 -0.2568960E-01  0.3814109E+00  0.2172386E+01  0.2158611E+00 -0.3144492E+00
  0.1600730E+02 -0.4855760E+01 -0.2568960E-01  0.3871937E+00  0.2177678E+01  0.2208201E+00 -0.3180526E+00
  0.1640620E+02 -0.3263390E+01 -0.2568960E-01  0.3900914E+00  0.2182999E+01  0.2241746E+00 -0.3192445E+00
  0.1664710E+02 -0.1639590E+01 -0.2568960E-01  0.3904931E+00  0.2187824E+01  0.2259447E+00 -0.3184869E+00
  0.1672760E+02  0.0000000E+00 -0.1027320E+00  0.3889942E+00  0.2189847E+01  0.2257186E+00 -0.3168085E+00
  0.1664710E+02  0.1639590E+01 -0.1027320E+00  0.3891030E+00  0.2187926E+01  0.2251725E+00 -0.3173302E+00
  0.1640620E+02  0.3263390E+01 -0.1027320E+00  0.3886884E+00  0.2183111E+01  0.2234039E+00 -0.3180714E+00
  0.1600730E+02  0.4855770E+01 -0.1027320E+00  0.3858132E+00  0.2177780E+01  0.2200651E+00 -0.3168962E+00
  0.1545430E+02  0.6401380E+01 -0.1027320E+00  0.3800938E+00  0.2172445E+01  0.2151340E+00 -0.3133507E+00
  0.1475240E+02  0.7885340E+01 -0.1027320E+00  0.3717936E+00  0.2166766E+01  0.2086921E+00 -0.3076980E+00
  0.1390850E+02  0.9293360E+01 -0.1027320E+00  0.3628300E+00  0.2158617E+01  0.2012069E+00 -0.3019294E+00
  0.1293060E+02  0.1061190E+02 -0.1027320E+00  0.3538764E+00  0.2147348E+01  0.1929108E+00 -0.2966715E+00
  0.1182820E+02  0.1182820E+02 -0.1027320E+00  0.3434982E+00  0.2134369E+01  0.1835000E+00 -0.2903769E+00
  0.1061190E+02  0.1293060E+02 -0.1027320E+00  0.3303243E+00  0.2120096E+01  0.1724591E+00 -0.2817304E+00
  0.9293360E+01  0.1390850E+02 -0.1027320E+00  0.3152021E+00  0.2104097E+01  0.1602420E+00 -0.2714311E+00
  0.7885330E+01  0.1475240E+02 -0.1027320E+00  0.2954325E+00  0.2089143E+01  0.1463703E+00 -0.2566244E+00
  0.6401380E+01  0.1545430E+02 -0.1027320E+00  0.2655025E+00  0.2081256E+01  0.1297189E+00 -0.2316563E+00
  0.4855770E+01  0.1600730E+02 -0.1027320E+00  0.2252169E+00  0.2080634E+01  0.1099138E+00 -0.1965747E+00
  0.3263390E+01  0.1640620E+02 -0.1027320E+00  0.1582370E+00  0.2124830E+01  0.8325198E-01 -0.1345662E+00
  0.1639590E+01  0.1664710E+02 -0.1027320E+00  0.6272820E-01  0.2459157E+01  0.4867952E-01 -0.3956173E-01
 -0.7311870E-06  0.1672760E+02 -0.1027320E+00  0.6227850E-01 -0.1804104E+01  0.1439857E-01  0.6059119E-01
 -0.1639590E+01  0.1664710E+02 -0.1027320E+00  0.1620743E+00 -0.1460854E+01 -0.1778289E-01  0.1610958E+00
 -0.3263390E+01  0.1640620E+02 -0.1027320E+00  0.2613954E+00 -0.1387637E+01 -0.4760972E-01  0.2570231E+00
 -0.4855770E+01  0.1600730E+02 -0.1027320E+00  0.3278962E+00 -0.1349459E+01 -0.7198443E-01  0.3198971E+00
 -0.6401380E+01  0.1545430E+02 -0.1027320E+00  0.3672781E+00 -0.1318018E+01 -0.9185445E-01  0.3556065E+00
 -0.7885340E+01  0.1475240E+02 -0.1027320E+00  0.3965468E+00 -0.1290199E+01 -0.1098156E+00  0.3810379E+00
 -0.9293360E+01  0.1390850E+02 -0.1027320E+00  0.4155701E+00 -0.1264496E+01 -0.1253083E+00  0.3962276E+00
 -0.1061190E+02  0.1293060E+02 -0.1027320E+00  0.4299603E+00 -0.1241320E+01 -0.1391127E+00  0.4068335E+00
 -0.1182820E+02  0.1182820E+02 -0.1027320E+00  0.4425321E+00 -0.1221041E+01 -0.1516414E+00  0.4157398E+00
 -0.1293060E+02  0.1061190E+02 -0.1027320E+00  0.4525599E+00 -0.1202670E+01 -0.1628619E+00  0.4222399E+00
 -0.1390850E+02  0.9293360E+01 -0.1027320E+00  0.4612264E+00 -0.1186963E+01 -0.1727189E+00  0.4276657E+00
 -0.1475240E+02  0.7885330E+01 -0.1027320E+00  0.4699761E+00 -0.1174653E+01 -0.1813465E+00  0.4335792E+00
 -0.1545430E+02  0.6401370E+01 -0.1027320E+00  0.4781415E+00 -0.1165199E+01 -0.1886591E+00  0.4393485E+00
 -0.1600730E+02  0.4855770E+01 -0.1027320E+00  0.4837270E+00 -0.1157375E+01 -0.1943346E+00  0.4429739E+00
 -0.1640620E+02  0.3263390E+01 -0.1027320E+00  0.4864444E+00 -0.1150980E+01 -0.1982713E+00  0.4442034E+00
 -0.1664710E+02  0.1639590E+01 -0.1027320E+00  0.4867064E+00 -0.1146219E+01 -0.2004919E+00  0.4434931E+00
 -0.1672760E+02 -0.1462370E-05 -0.1027320E+00  0.4865291E+00 -0.1144475E+01 -0.2011915E+00  0.4429814E+00
 -0.1664710E+02 -0.1639590E+01 -0.1027320E+00  0.4867072E+00 -0.1146216E+01 -0.2004934E+00  0.4434933E+00
 -0.1640620E+02 -0.3263400E+01 -0.1027320E+00  0.4864441E+00 -0.1150982E+01 -0.1982702E+00  0.4442036E+00
 -0.1600730E+02 -0.4855770E+01 -0.1027320E+00  0.4837269E+00 -0.1157376E+01 -0.1943345E+00  0.4429739E+00
 -0.1545430E+02 -0.6401380E+01 -0.1027320E+00  0.4781413E+00 -0.1165198E+01 -0.1886593E+00  0.4393481E+00
 -0.1475240E+02 -0.7885340E+01 -0.1027320E+00  0.4699756E+00 -0.1174655E+01 -0.1813456E+00  0.4335791E+00
 -0.1390850E+02 -0.9293360E+01 -0.1027320E+00  0.4612261E+00 -0.1186965E+01 -0.1727181E+00  0.4276658E+00
 -0.1293060E+02 -0.1061190E+02 -0.1027320E+00  0.4525600E+00 -0.1202670E+01 -0.1628619E+00  0.4222400E+00
 -0.1182820E+02 -0.1182820E+02 -0.1027320E+00  0.4425323E+00 -0.1221041E+01 -0.1516417E+00  0.4157398E+00
 -0.1061190E+02 -0.1293060E+02 -0.1027320E+00  0.4299602E+00 -0.1241320E+01 -0.1391126E+00  0.4068335E+00
 -0.9293350E+01 -0.1390850E+02 -0.1027320E+00  0.4155703E+00 -0.1264496E+01 -0.1253083E+00  0.3962278E+00
 -0.7885340E+01 -0.1475240E+02 -0.1027320E+00  0.3965473E+00 -0.1290199E+01 -0.1098156E+00  0.3810385E+00
 -0.6401370E+01 -0.1545430E+02 -0.1027320E+00  0.3672784E+00 -0.1318014E+01 -0.9185594E-01  0.3556064E+00
 -0.4855760E+01 -0.1600730E+02 -0.1027320E+00  0.3278965E+00 -0.1349461E+01 -0.7198381E-01  0.3198975E+00
 -0.3263390E+01 -0.1640620E+02 -0.1027320E+00  0.2613958E+00 -0.1387639E+01 -0.4760934E-01  0.2570236E+00
 -0.1639590E+01 -0.1664710E+02 -0.1027320E+00  0.1620744E+00 -0.1460848E+01 -0.1778393E-01  0.1610957E+00
  0.1994750E-06 -0.1672760E+02 -0.1027320E+00  0.6227840E-01 -0.1804090E+01  0.1439773E-01  0.6059129E-01
  0.1639600E+01 -0.1664710E+02 -0.1027320E+00  0.6272875E-01  0.2459156E+01  0.4867989E-01 -0.3956215E-01
  0.3263390E+01 -0.1640620E+02 -0.1027320E+00  0.1582370E+00  0.2124829E+01  0.8325183E-01 -0.1345662E+00
  0.4855770E+01 -0.1600730E+02 -0.1027320E+00  0.2252175E+00  0.2080641E+01  0.1099155E+00 -0.1965744E+00
  0.6401380E+01 -0.1545430E+02 -0.1027320E+00  0.2655018E+00  0.2081252E+01  0.1297175E+00 -0.2316562E+00
  0.7885340E+01 -0.1475240E+02 -0.1027320E+00  0.2954316E+00  0.2089139E+01  0.1463689E+00 -0.2566242E+00
  0.9293360E+01 -0.1390850E+02 -0.1027320E+00  0.3152021E+00  0.2104097E+01  0.1602419E+00 -0.2714312E+00
  0.1061190E+02 -0.1293060E+02 -0.1027320E+00  0.3303245E+00  0.2120098E+01  0.1724598E+00 -0.2817302E+00
  0.1182820E+02 -0.1182820E+02 -0.1027320E+00  0.3434980E+00  0.2134367E+01  0.1834995E+00 -0.2903770E+00
  0.1293060E+02 -0.1061190E+02 -0.1027320E+00  0.3538761E+00  0.2147348E+01  0.1929106E+00 -0.2966712E+00
  0.1390850E+02 -0.9293360E+01 -0.1027320E+00  0.3628299E+00  0.2158618E+01  0.2012073E+00 -0.3019291E+00
  0.1475240E+02 -0.7885330E+01 -0.1027320E+00  0.3717946E+00  0.2166768E+01  0.2086930E+00 -0.3076986E+00
  0.1545430E+02 -0.6401380E+01 -0.1027320E+00  0.3800942E+00  0.2172445E+01  0.2151343E+00 -0.3133509E+00
  0.1600730E+02 -0.4855760E+01 -0.1027320E+00  0.3858132E+00  0.2177780E+01  0.2200651E+00 -0.3168962E+00
  0.1640620E+02 -0.3263390E+01 -0.1027320E+00  0.3886885E+00  0.2183113E+01  0.2234045E+00 -0.3180710E+00
  0.1664710E+02 -0.1639590E+01 -0.1027320E+00  0.3891034E+00  0.2187928E+01  0.2251735E+00 -0.3173301E+00
  0.1672760E+02  0.0000000E+00 -0.2310450E+00  0.3867587E+00  0.2189924E+01  0.2244456E+00 -0.3149706E+00
  0.1664710E+02  0.1639590E+01 -0.2310450E+00  0.3868544E+00  0.2188035E+01  0.2239058E+00 -0.3154719E+00
  0.1640620E+02  0.3263390E+01 -0.2310450E+00  0.3864136E+00  0.2183244E+01  0.2221384E+00 -0.3161803E+00
  0.1600730E+02  0.4855770E+01 -0.2310450E+00  0.3835735E+00  0.2177894E+01  0.2188234E+00 -0.3150317E+00
  0.1545430E+02  0.6401380E+01 -0.2310450E+00  0.3779548E+00  0.2172481E+01  0.2139347E+00 -0.3115796E+00
  0.1475240E+02  0.7885340E+01 -0.2310450E+00  0.3698047E+00  0.2166690E+01  0.2075524E+00 -0.3060678E+00
  0.1390850E+02  0.9293360E+01 -0.2310450E+00  0.3609588E+00  0.2158477E+01  0.2001272E+00 -0.3004003E+00
  0.1293060E+02  0.1061190E+02 -0.2310450E+00  0.3520482E+00  0.2147206E+01  0.1918722E+00 -0.2951660E+00
  0.1182820E+02  0.1182820E+02 -0.2310450E+00  0.3416918E+00  0.2134248E+01  0.1825000E+00 -0.2888720E+00
  0.1061190E+02  0.1293060E+02 -0.2310450E+00  0.3286307E+00  0.2119957E+01  0.1715359E+00 -0.2803098E+00
  0.9293360E+01  0.1390850E+02 -0.2310450E+00  0.3135580E+00  0.2104004E+01  0.1593811E+00 -0.2700302E+00
  0.7885330E+01  0.1475240E+02 -0.2310450E+00  0.2938392E+00  0.2089113E+01  0.1455735E+00 -0.2552446E+00
  0.6401380E+01  0.1545430E+02 -0.2310450E+00  0.2641732E+00  0.2081090E+01  0.1290310E+00 -0.2305179E+00
  0.4855770E+01  0.1600730E+02 -0.2310450E+00  0.2240663E+00  0.2080532E+01  0.1093324E+00 -0.1955815E+00
  0.3263390E+01  0.1640620E+02 -0.2310450E+00  0.1574794E+00  0.2124595E+01  0.8282185E-01 -0.1339414E+00
  0.1639590E+01  0.1664710E+02 -0.2310450E+00  0.6235330E-01  0.2459577E+01  0.4840510E-01 -0.3930496E-01
 -0.7311870E-06  0.1672760E+02 -0.2310450E+00  0.6192398E-01 -0.1804114E+01  0.1431722E-01  0.6024613E-01
 -0.1639590E+01  0.1664710E+02 -0.2310450E+00  0.1611219E+00 -0.1460889E+01 -0.1767290E-01  0.1601497E+00
 -0.3263390E+01  0.1640620E+02 -0.2310450E+00  0.2600537E+00 -0.1387671E+01 -0.4735681E-01  0.2557054E+00
 -0.4855770E+01  0.1600730E+02 -0.2310450E+00  0.3261596E+00 -0.1349510E+01 -0.7158713E-01  0.3182065E+00
 -0.6401380E+01  0.1545430E+02 -0.2310450E+00  0.3653758E+00 -0.1318061E+01 -0.9136354E-01  0.3537685E+00
 -0.7885340E+01  0.1475240E+02 -0.2310450E+00  0.3943766E+00 -0.1290241E+01 -0.1091985E+00  0.3789573E+00
 -0.9293360E+01  0.1390850E+02 -0.2310450E+00  0.4133531E+00 -0.1264560E+01 -0.1246144E+00  0.3941219E+00
 -0.1061190E+02  0.1293060E+02 -0.2310450E+00  0.4277023E+00 -0.1241393E+01 -0.1383526E+00  0.4047071E+00
 -0.1182820E+02  0.1182820E+02 -0.2310450E+00  0.4401692E+00 -0.1221092E+01 -0.1508110E+00  0.4135275E+00
 -0.1293060E+02  0.1061190E+02 -0.2310450E+00  0.4501740E+00 -0.1202746E+01 -0.1619711E+00  0.4200262E+00
 -0.1390850E+02  0.9293360E+01 -0.2310450E+00  0.4587955E+00 -0.1187055E+01 -0.1717695E+00  0.4254275E+00
 -0.1475240E+02  0.7885330E+01 -0.2310450E+00  0.4674280E+00 -0.1174710E+01 -0.1803387E+00  0.4312388E+00
 -0.1545430E+02  0.6401370E+01 -0.2310450E+00  0.4754374E+00 -0.1165204E+01 -0.1875902E+00  0.4368645E+00
 -0.1600730E+02  0.4855770E+01 -0.2310450E+00  0.4809217E+00 -0.1157344E+01 -0.1932217E+00  0.4403988E+00
 -0.1640620E+02  0.3263390E+01 -0.2310450E+00  0.4836044E+00 -0.1150939E+01 -0.1971318E+00  0.4416019E+00
 -0.1664710E+02  0.1639590E+01 -0.2310450E+00  0.4838927E+00 -0.1146194E+01 -0.1993439E+00  0.4409242E+00
 -0.1672760E+02 -0.1462370E-05 -0.2310450E+00  0.4837350E+00 -0.1144453E+01 -0.2000458E+00  0.4404330E+00
 -0.1664710E+02 -0.1639590E+01 -0.2310450E+00  0.4838928E+00 -0.1146192E+01 -0.1993444E+00  0.4409240E+00
 -0.1640620E+02 -0.3263400E+01 -0.2310450E+00  0.4836043E+00 -0.1150938E+01 -0.1971323E+00  0.4416016E+00
 -0.1600730E+02 -0.4855770E+01 -0.2310450E+00  0.4809213E+00 -0.1157345E+01 -0.1932210E+00  0.4403987E+00
 -0.1545430E+02 -0.6401380E+01 -0.2310450E+00  0.4754372E+00 -0.1165203E+01 -0.1875903E+00  0.4368643E+00
 -0.1475240E+02 -0.7885340E+01 -0.2310450E+00  0.4674276E+00 -0.1174711E+01 -0.1803383E+00  0.4312386E+00
 -0.1390850E+02 -0.9293360E+01 -0.2310450E+00  0.4587951E+00 -0.1187057E+01 -0.1717684E+00  0.4254275E+00
 -0.1293060E+02 -0.1061190E+02 -0.2310450E+00  0.4501742E+00 -0.1202746E+01 -0.1619713E+00  0.4200263E+00
 -0.1182820E+02 -0.1182820E+02 -0.2310450E+00  0.4401693E+00 -0.1221092E+01 -0.1508107E+00  0.4135276E+00
 -0.1061190E+02 -0.1293060E+02 -0.2310450E+00  0.4277025E+00 -0.1241392E+01 -0.1383528E+00  0.4047072E+00
 -0.9293350E+01 -0.1390850E+02 -0.2310450E+00  0.4133536E+00 -0.1264557E+01 -0.1246160E+00  0.3941219E+00
 -0.7885340E+01 -0.1475240E+02 -0.2310450E+00  0.3943762E+00 -0.1290244E+01 -0.1091975E+00  0.3789572E+00
 -0.6401370E+01 -0.1545430E+02 -0.2310450E+00  0.3653756E+00 -0.1318064E+01 -0.9136216E-01  0.3537687E+00
 -0.4855760E+01 -0.1600730E+02 -0.2310450E+00  0.3261598E+00 -0.1349507E+01 -0.7158814E-01  0.3182065E+00
 -0.3263390E+01 -0.1640620E+02 -0.2310450E+00  0.2600536E+00 -0.1387673E+01 -0.4735620E-01  0.2557055E+00
 -0.1639590E+01 -0.1664710E+02 -0.2310450E+00  0.1611219E+00 -0.1460891E+01 -0.1767259E-01  0.1601497E+00
  0.1994750E-06 -0.1672760E+02 -0.2310450E+00  0.6192350E-01 -0.1804088E+01  0.1431557E-01  0.6024603E-01
  0.1639600E+01 -0.1664710E+02 -0.2310450E+00  0.6235348E-01  0.2459568E+01  0.4840488E-01 -0.3930553E-01
  0.3263390E+01 -0.1640620E+02 -0.2310450E+00  0.1574798E+00  0.2124597E+01  0.8282237E-01 -0.1339416E+00
  0.4855770E+01 -0.1600730E+02 -0.2310450E+00  0.2240653E+00  0.2080529E+01  0.1093312E+00 -0.1955810E+00
  0.6401380E+01 -0.1545430E+02 -0.2310450E+00  0.2641739E+00  0.2081092E+01  0.1290319E+00 -0.2305181E+00
  0.7885340E+01 -0.1475240E+02 -0.2310450E+00  0.2938394E+00  0.2089115E+01  0.1455740E+00 -0.2552446E+00
  0.9293360E+01 -0.1390850E+02 -0.2310450E+00  0.3135577E+00  0.2104004E+01  0.1593809E+00 -0.2700299E+00
  0.1061190E+02 -0.1293060E+02 -0.2310450E+00  0.3286308E+00  0.2119956E+01  0.1715357E+00 -0.2803100E+00
  0.1182820E+02 -0.1182820E+02 -0.2310450E+00  0.3416920E+00  0.2134249E+01  0.1825005E+00 -0.2888719E+00
  0.1293060E+02 -0.1061190E+02 -0.2310450E+00  0.3520482E+00  0.2147207E+01  0.1918726E+00 -0.2951658E+00
  0.1390850E+02 -0.9293360E+01 -0.2310450E+00  0.3609586E+00  0.2158476E+01  0.2001269E+00 -0.3004003E+00
  0.1475240E+02 -0.7885330E+01 -0.2310450E+00  0.3698047E+00  0.2166691E+01  0.2075526E+00 -0.3060677E+00
  0.1545430E+02 -0.6401380E+01 -0.2310450E+00  0.3779547E+00  0.2172480E+01  0.2139343E+00 -0.3115796E+00
  0.1600730E+02 -0.4855760E+01 -0.2310450E+00  0.3835730E+00  0.2177893E+01  0.2188227E+00 -0.3150315E+00
  0.1640620E+02 -0.3263390E+01 -0.2310450E+00  0.3864139E+00  0.2183245E+01  0.2221389E+00 -0.3161803E+00
  0.1664710E+02 -0.1639590E+01 -0.2310450E+00  0.3868547E+00  0.2188037E+01  0.2239065E+00 -0.3154718E+00
  0.1672760E+02  0.0000000E+00 -0.4105000E+00  0.3836515E+00  0.2190061E+01  0.2226853E+00 -0.3124096E+00
  0.1664710E+02  0.1639590E+01 -0.4105000E+00  0.3837205E+00  0.2188195E+01  0.2221419E+00 -0.3128807E+00
  0.1640620E+02  0.3263390E+01 -0.4105000E+00  0.3832451E+00  0.2183444E+01  0.2203796E+00 -0.3135437E+00
  0.1600730E+02  0.4855770E+01 -0.4105000E+00  0.3804513E+00  0.2178066E+01  0.2170961E+00 -0.3124300E+00
  0.1545430E+02  0.6401380E+01 -0.4105000E+00  0.3749726E+00  0.2172550E+01  0.2122678E+00 -0.3091065E+00
  0.1475240E+02  0.7885340E+01 -0.4105000E+00  0.3670329E+00  0.2166607E+01  0.2059716E+00 -0.3037908E+00
  0.1390850E+02  0.9293360E+01 -0.4105000E+00  0.3583443E+00  0.2158286E+01  0.1986206E+00 -0.2982624E+00
  0.1293060E+02  0.1061190E+02 -0.4105000E+00  0.3494954E+00  0.2147021E+01  0.1904266E+00 -0.2930609E+00
  0.1182820E+02  0.1182820E+02 -0.4105000E+00  0.3391695E+00  0.2134105E+01  0.1811120E+00 -0.2867654E+00
  0.1061190E+02  0.1293060E+02 -0.4105000E+00  0.3262573E+00  0.2119784E+01  0.1702488E+00 -0.2783149E+00
  0.9293360E+01  0.1390850E+02 -0.4105000E+00  0.3112510E+00  0.2103904E+01  0.1581814E+00 -0.2680593E+00
  0.7885330E+01  0.1475240E+02 -0.4105000E+00  0.2916032E+00  0.2089113E+01  0.1444655E+00 -0.2533024E+00
  0.6401380E+01  0.1545430E+02 -0.4105000E+00  0.2623141E+00  0.2080881E+01  0.1280751E+00 -0.2289224E+00
  0.4855770E+01  0.1600730E+02 -0.4105000E+00  0.2224434E+00  0.2080413E+01  0.1085174E+00 -0.1941779E+00
  0.3263390E+01  0.1640620E+02 -0.4105000E+00  0.1564031E+00  0.2124329E+01  0.8222048E-01 -0.1330478E+00
  0.1639590E+01  0.1664710E+02 -0.4105000E+00  0.6183945E-01  0.2460017E+01  0.4802335E-01 -0.3895992E-01
 -0.7311870E-06  0.1672760E+02 -0.4105000E+00  0.6143180E-01 -0.1804098E+01  0.1420248E-01  0.5976751E-01
 -0.1639590E+01  0.1664710E+02 -0.4105000E+00  0.1598099E+00 -0.1460957E+01 -0.1751815E-01  0.1588468E+00
 -0.3263390E+01  0.1640620E+02 -0.4105000E+00  0.2581636E+00 -0.1387725E+01 -0.4699870E-01  0.2538495E+00
 -0.4855770E+01  0.1600730E+02 -0.4105000E+00  0.3237261E+00 -0.1349566E+01 -0.7103524E-01  0.3158363E+00
 -0.6401380E+01  0.1545430E+02 -0.4105000E+00  0.3627167E+00 -0.1318128E+01 -0.9067513E-01  0.3512000E+00
 -0.7885340E+01  0.1475240E+02 -0.4105000E+00  0.3913351E+00 -0.1290290E+01 -0.1083382E+00  0.3760399E+00
 -0.9293360E+01  0.1390850E+02 -0.4105000E+00  0.4102527E+00 -0.1264634E+01 -0.1236510E+00  0.3911747E+00
 -0.1061190E+02  0.1293060E+02 -0.4105000E+00  0.4245456E+00 -0.1241489E+01 -0.1372929E+00  0.4017332E+00
 -0.1182820E+02  0.1182820E+02 -0.4105000E+00  0.4368718E+00 -0.1221157E+01 -0.1496545E+00  0.4104394E+00