 VARIABLES="X" "Y" "Z" "abs(eta) (m)" "angle(phi) (rad)" "PRE1" "PRE2"
ZONE N=   3200 ,E =    3136 ,F=FEPOINT,ET=QUADRILATERAL
  0.1530690E+02  0.0000000E+00  0.0000000E+00  0.3642296E+00  0.2419132E+01  0.2732380E+00 -0.2408406E+00
  0.1523320E+02  0.1500340E+01  0.0000000E+00  0.3582026E+00  0.2411429E+01  0.2668844E+00 -0.2389180E+00
  0.1501280E+02  0.2986230E+01  0.0000000E+00  0.3522128E+00  0.2398112E+01  0.2592699E+00 -0.2383967E+00
  0.1464780E+02  0.4443360E+01  0.0000000E+00  0.3460983E+00  0.2379298E+01  0.2503168E+00 -0.2390095E+00
  0.1414170E+02  0.5857700E+01  0.0000000E+00  0.3389078E+00  0.2357340E+01  0.2399184E+00 -0.2393693E+00
  0.1349950E+02  0.7215620E+01  0.0000000E+00  0.3282119E+00  0.2338096E+01  0.2278427E+00 -0.2362430E+00
  0.1272720E+02  0.8504060E+01  0.0000000E+00  0.3151150E+00  0.2320546E+01  0.2147369E+00 -0.2306198E+00
  0.1183240E+02  0.9710600E+01  0.0000000E+00  0.3010553E+00  0.2300874E+01  0.2007820E+00 -0.2243231E+00
  0.1082360E+02  0.1082360E+02  0.0000000E+00  0.2870665E+00  0.2274357E+01  0.1857140E+00 -0.2189007E+00
  0.9710590E+01  0.1183240E+02  0.0000000E+00  0.2710234E+00  0.2246853E+01  0.1695853E+00 -0.2114107E+00
  0.8504060E+01  0.1272720E+02  0.0000000E+00  0.2507560E+00  0.2223904E+01  0.1523738E+00 -0.1991502E+00
  0.7215620E+01  0.1349950E+02  0.0000000E+00  0.2314521E+00  0.2191123E+01  0.1345434E+00 -0.1883300E+00
  0.5857700E+01  0.1414170E+02  0.0000000E+00  0.2039123E+00  0.2174652E+01  0.1157856E+00 -0.1678509E+00
  0.4443360E+01  0.1464780E+02  0.0000000E+00  0.1687588E+00  0.2177933E+01  0.9627996E-01 -0.1385991E+00
  0.2986230E+01  0.1501280E+02  0.0000000E+00  0.1129452E+00  0.2329420E+01  0.7769760E-01 -0.8197376E-01
  0.1500340E+01  0.1523320E+02  0.0000000E+00  0.1188468E+00 -0.2154044E+01  0.6545343E-01  0.9919883E-01
 -0.6690860E-06  0.1530690E+02  0.0000000E+00  0.2053913E+00 -0.1786754E+01  0.4401193E-01  0.2006203E+00
 -0.1500340E+01  0.1523320E+02  0.0000000E+00  0.2820215E+00 -0.1617754E+01  0.1323834E-01  0.2817106E+00
 -0.2986230E+01  0.1501280E+02  0.0000000E+00  0.3758128E+00 -0.1462596E+01 -0.4058376E-01  0.3736151E+00
 -0.4443360E+01  0.1464780E+02  0.0000000E+00  0.4023251E+00 -0.1372450E+01 -0.7927743E-01  0.3944370E+00
 -0.5857700E+01  0.1414170E+02  0.0000000E+00  0.4201257E+00 -0.1305749E+01 -0.1100540E+00  0.4054550E+00
 -0.7215620E+01  0.1349950E+02  0.0000000E+00  0.4345913E+00 -0.1250172E+01 -0.1369655E+00  0.4124440E+00
 -0.8504060E+01  0.1272720E+02  0.0000000E+00  0.4430521E+00 -0.1199477E+01 -0.1607594E+00  0.4128578E+00
 -0.9710590E+01  0.1183240E+02  0.0000000E+00  0.4541259E+00 -0.1157223E+01 -0.1825061E+00  0.4158387E+00
 -0.1082360E+02  0.1082360E+02  0.0000000E+00  0.4624878E+00 -0.1119595E+01 -0.2016662E+00  0.4162039E+00
 -0.1183240E+02  0.9710590E+01  0.0000000E+00  0.4692479E+00 -0.1085968E+01 -0.2186961E+00  0.4151694E+00
 -0.1272720E+02  0.8504060E+01  0.0000000E+00  0.4761434E+00 -0.1057217E+01 -0.2339282E+00  0.4147170E+00
 -0.1349950E+02  0.7215620E+01  0.0000000E+00  0.4823844E+00 -0.1032696E+01 -0.2472249E+00  0.4142156E+00
 -0.1414170E+02  0.5857690E+01  0.0000000E+00  0.4864882E+00 -0.1010812E+01 -0.2584092E+00  0.4121838E+00
 -0.1464780E+02  0.4443360E+01  0.0000000E+00  0.4870817E+00 -0.9905269E+00 -0.2670422E+00  0.4073537E+00
 -0.1501280E+02  0.2986230E+01  0.0000000E+00  0.4866067E+00 -0.9737576E+00 -0.2735684E+00  0.4024257E+00
 -0.1523320E+02  0.1500340E+01  0.0000000E+00  0.4859387E+00 -0.9612341E+00 -0.2782041E+00  0.3984205E+00
 -0.1530690E+02 -0.1338170E-05  0.0000000E+00  0.4851614E+00 -0.9530180E+00 -0.2810179E+00  0.3954877E+00
 -0.1523320E+02 -0.1500340E+01  0.0000000E+00  0.4836568E+00 -0.9484546E+00 -0.2819426E+00  0.3929787E+00
 -0.1501280E+02 -0.2986230E+01  0.0000000E+00  0.4825938E+00 -0.9478467E+00 -0.2815613E+00  0.3919439E+00
 -0.1464780E+02 -0.4443360E+01  0.0000000E+00  0.4817935E+00 -0.9508705E+00 -0.2799098E+00  0.3921421E+00
 -0.1414170E+02 -0.5857700E+01  0.0000000E+00  0.4798698E+00 -0.9566202E+00 -0.2765420E+00  0.3921729E+00
 -0.1349950E+02 -0.7215620E+01  0.0000000E+00  0.4733373E+00 -0.9636731E+00 -0.2700423E+00  0.3887484E+00
 -0.1272720E+02 -0.8504060E+01  0.0000000E+00  0.4630959E+00 -0.9730675E+00 -0.2606149E+00  0.3828024E+00
 -0.1183240E+02 -0.9710600E+01  0.0000000E+00  0.4513159E+00 -0.9854274E+00 -0.2493551E+00  0.3761755E+00
 -0.1082360E+02 -0.1082360E+02  0.0000000E+00  0.4400564E+00 -0.1000803E+01 -0.2374661E+00  0.3704855E+00
 -0.9710600E+01 -0.1183240E+02  0.0000000E+00  0.4260271E+00 -0.1018718E+01 -0.2234332E+00  0.3627350E+00
 -0.8504050E+01 -0.1272720E+02  0.0000000E+00  0.4063919E+00 -0.1038708E+01 -0.2061765E+00  0.3502080E+00
 -0.7215620E+01 -0.1349950E+02  0.0000000E+00  0.3883473E+00 -0.1061602E+01 -0.1893090E+00  0.3390807E+00
 -0.5857690E+01 -0.1414170E+02  0.0000000E+00  0.3591859E+00 -0.1088268E+01 -0.1666697E+00  0.3181756E+00
 -0.4443360E+01 -0.1464780E+02  0.0000000E+00  0.3202848E+00 -0.1119915E+01 -0.1395669E+00  0.2882767E+00
 -0.2986230E+01 -0.1501280E+02  0.0000000E+00  0.2503247E+00 -0.1168163E+01 -0.9808780E-01  0.2303068E+00
 -0.1500340E+01 -0.1523320E+02  0.0000000E+00  0.4966385E-01 -0.1934754E+01  0.1767909E-01  0.4641064E-01
  0.1825330E-06 -0.1530690E+02  0.0000000E+00  0.1072389E+00  0.2602688E+01  0.9204004E-01 -0.5503456E-01
  0.1500340E+01 -0.1523320E+02  0.0000000E+00  0.2054609E+00  0.2427593E+01  0.1552768E+00 -0.1345484E+00
  0.2986230E+01 -0.1501280E+02  0.0000000E+00  0.3140112E+00  0.2356474E+01  0.2221015E+00 -0.2219774E+00
  0.4443360E+01 -0.1464780E+02  0.0000000E+00  0.3391501E+00  0.2352781E+01  0.2389952E+00 -0.2406327E+00
  0.5857700E+01 -0.1414170E+02  0.0000000E+00  0.3544166E+00  0.2357111E+01  0.2508400E+00 -0.2503805E+00
  0.7215620E+01 -0.1349950E+02  0.0000000E+00  0.3659106E+00  0.2364943E+01  0.2609914E+00 -0.2564645E+00
  0.8504060E+01 -0.1272720E+02  0.0000000E+00  0.3701689E+00  0.2376966E+01  0.2671289E+00 -0.2562560E+00
  0.9710600E+01 -0.1183240E+02  0.0000000E+00  0.3773242E+00  0.2385636E+01  0.2745469E+00 -0.2588389E+00
  0.1082360E+02 -0.1082360E+02  0.0000000E+00  0.3813208E+00  0.2394737E+01  0.2798242E+00 -0.2590443E+00
  0.1183240E+02 -0.9710590E+01  0.0000000E+00  0.3833941E+00  0.2403402E+01  0.2835917E+00 -0.2580054E+00
  0.1272720E+02 -0.8504060E+01  0.0000000E+00  0.3857015E+00  0.2409977E+01  0.2869991E+00 -0.2576765E+00
  0.1349950E+02 -0.7215620E+01  0.0000000E+00  0.3872668E+00  0.2414437E+01  0.2893148E+00 -0.2574345E+00
  0.1414170E+02 -0.5857700E+01  0.0000000E+00  0.3861811E+00  0.2417902E+01  0.2893915E+00 -0.2557116E+00
  0.1464780E+02 -0.4443350E+01  0.0000000E+00  0.3813450E+00  0.2422301E+01  0.2868753E+00 -0.2512501E+00
  0.1501280E+02 -0.2986230E+01  0.0000000E+00  0.3755407E+00  0.2424698E+01  0.2831012E+00 -0.2467479E+00
  0.1523320E+02 -0.1500330E+01  0.0000000E+00  0.3697917E+00  0.2423769E+01  0.2785415E+00 -0.2432294E+00
  0.1530690E+02  0.0000000E+00 -0.2568960E-01  0.3637587E+00  0.2419096E+01  0.2728763E+00 -0.2405389E+00
  0.1523320E+02  0.1500340E+01 -0.2568960E-01  0.3577375E+00  0.2411391E+01  0.2665287E+00 -0.2386181E+00
  0.1501280E+02  0.2986230E+01 -0.2568960E-01  0.3517481E+00  0.2398086E+01  0.2589216E+00 -0.2380889E+00
  0.1464780E+02  0.4443360E+01 -0.2568960E-01  0.3456299E+00  0.2379305E+01  0.2499797E+00 -0.2386843E+00
  0.1414170E+02  0.5857700E+01 -0.2568960E-01  0.3384359E+00  0.2357374E+01  0.2395924E+00 -0.2390279E+00
  0.1349950E+02  0.7215620E+01 -0.2568960E-01  0.3277620E+00  0.2338124E+01  0.2275369E+00 -0.2359128E+00
  0.1272720E+02  0.8504060E+01 -0.2568960E-01  0.3146991E+00  0.2320539E+01  0.2144520E+00 -0.2303169E+00
  0.1183240E+02  0.9710600E+01 -0.2568960E-01  0.3006677E+00  0.2300833E+01  0.2005143E+00 -0.2240426E+00
  0.1082360E+02  0.1082360E+02 -0.2568960E-01  0.2866934E+00  0.2274335E+01  0.1854678E+00 -0.2186202E+00
  0.9710590E+01  0.1183240E+02 -0.2568960E-01  0.2706675E+00  0.2246839E+01  0.1693597E+00 -0.2111355E+00
  0.8504060E+01  0.1272720E+02 -0.2568960E-01  0.2504558E+00  0.2223829E+01  0.1521765E+00 -0.1989231E+00
  0.7215620E+01  0.1349950E+02 -0.2568960E-01  0.2311525E+00  0.2191108E+01  0.1343663E+00 -0.1880882E+00
  0.5857700E+01  0.1414170E+02 -0.2568960E-01  0.2036632E+00  0.2174599E+01  0.1156353E+00 -0.1676520E+00
  0.4443360E+01  0.1464780E+02 -0.2568960E-01  0.1685512E+00  0.2177918E+01  0.9615953E-01 -0.1384300E+00
  0.2986230E+01  0.1501280E+02 -0.2568960E-01  0.1128104E+00  0.2329427E+01  0.7760542E-01 -0.8187543E-01
  0.1500340E+01  0.1523320E+02 -0.2568960E-01  0.1186783E+00 -0.2154217E+01  0.6537770E-01  0.9904695E-01
 -0.6690860E-06  0.1530690E+02 -0.2568960E-01  0.2051081E+00 -0.1786766E+01  0.4395357E-01  0.2003432E+00
 -0.1500340E+01  0.1523320E+02 -0.2568960E-01  0.2816792E+00 -0.1617768E+01  0.1322618E-01  0.2813686E+00
 -0.2986230E+01  0.1501280E+02 -0.2568960E-01  0.3753411E+00 -0.1462631E+01 -0.4051961E-01  0.3731475E+00
 -0.4443360E+01  0.1464780E+02 -0.2568960E-01  0.4018181E+00 -0.1372485E+01 -0.7916389E-01  0.3939427E+00
 -0.5857700E+01  0.1414170E+02 -0.2568960E-01  0.4195855E+00 -0.1305777E+01 -0.1099013E+00  0.4049367E+00
 -0.7215620E+01  0.1349950E+02 -0.2568960E-01  0.4340156E+00 -0.1250184E+01 -0.1367790E+00  0.4118993E+00
 -0.8504060E+01  0.1272720E+02 -0.2568960E-01  0.4424887E+00 -0.1199502E+01 -0.1605447E+00  0.4123368E+00
 -0.9710590E+01  0.1183240E+02 -0.2568960E-01  0.4535209E+00 -0.1157240E+01 -0.1822556E+00  0.4152880E+00
 -0.1082360E+02  0.1082360E+02 -0.2568960E-01  0.4618708E+00 -0.1119614E+01 -0.2013896E+00  0.4156523E+00
 -0.1183240E+02  0.9710590E+01 -0.2568960E-01  0.4686258E+00 -0.1085985E+01 -0.2183992E+00  0.4146226E+00
 -0.1272720E+02  0.8504060E+01 -0.2568960E-01  0.4755014E+00 -0.1057230E+01 -0.2336077E+00  0.4141607E+00
 -0.1349950E+02  0.7215620E+01 -0.2568960E-01  0.4817192E+00 -0.1032695E+01 -0.2468844E+00  0.4136442E+00
 -0.1414170E+02  0.5857690E+01 -0.2568960E-01  0.4858105E+00 -0.1010804E+01 -0.2580525E+00  0.4116075E+00
 -0.1464780E+02  0.4443360E+01 -0.2568960E-01  0.4864151E+00 -0.9905278E+00 -0.2666763E+00  0.4067964E+00
 -0.1501280E+02  0.2986230E+01 -0.2568960E-01  0.4859552E+00 -0.9737654E+00 -0.2731989E+00  0.4018890E+00
 -0.1523320E+02  0.1500340E+01 -0.2568960E-01  0.4852962E+00 -0.9612532E+00 -0.2778286E+00  0.3978990E+00
 -0.1530690E+02 -0.1338170E-05 -0.2568960E-01  0.4845218E+00 -0.9530389E+00 -0.2806392E+00  0.3949722E+00
 -0.1523320E+02 -0.1500340E+01 -0.2568960E-01  0.4830219E+00 -0.9484703E+00 -0.2815664E+00  0.3924673E+00
 -0.1501280E+02 -0.2986230E+01 -0.2568960E-01  0.4819499E+00 -0.9478606E+00 -0.2811801E+00  0.3914248E+00
 -0.1464780E+02 -0.4443360E+01 -0.2568960E-01  0.4811337E+00 -0.9508742E+00 -0.2795251E+00  0.3916062E+00
 -0.1414170E+02 -0.5857700E+01 -0.2568960E-01  0.4791947E+00 -0.9566207E+00 -0.2761527E+00  0.3916213E+00
 -0.1349950E+02 -0.7215620E+01 -0.2568960E-01  0.4726788E+00 -0.9636742E+00 -0.2696662E+00  0.3882079E+00
 -0.1272720E+02 -0.8504060E+01 -0.2568960E-01  0.4624716E+00 -0.9730786E+00 -0.2602593E+00  0.3822893E+00
 -0.1183240E+02 -0.9710600E+01 -0.2568960E-01  0.4507259E+00 -0.9854378E+00 -0.2490253E+00  0.3756863E+00
 -0.1082360E+02 -0.1082360E+02 -0.2568960E-01  0.4394720E+00 -0.1000809E+01 -0.2371485E+00  0.3699949E+00
 -0.9710600E+01 -0.1183240E+02 -0.2568960E-01  0.4254576E+00 -0.1018726E+01 -0.2231316E+00  0.3622519E+00
 -0.8504050E+01 -0.1272720E+02 -0.2568960E-01  0.4058834E+00 -0.1038721E+01 -0.2059141E+00  0.3497725E+00
 -0.7215620E+01 -0.1349950E+02 -0.2568960E-01  0.3878301E+00 -0.1061612E+01 -0.1890536E+00  0.3386309E+00
 -0.5857690E+01 -0.1414170E+02 -0.2568960E-01  0.3587271E+00 -0.1088268E+01 -0.1664566E+00  0.3177693E+00
 -0.4443360E+01 -0.1464780E+02 -0.2568960E-01  0.3198670E+00 -0.1119909E+01 -0.1393865E+00  0.2878998E+00
 -0.2986230E+01 -0.1501280E+02 -0.2568960E-01  0.2499928E+00 -0.1168167E+01 -0.9795679E-01  0.2300019E+00
 -0.1500340E+01 -0.1523320E+02 -0.2568960E-01  0.4960634E-01 -0.1934544E+01  0.1764890E-01  0.4636060E-01
  0.1825330E-06 -0.1530690E+02 -0.2568960E-01  0.1070946E+00  0.2602710E+01  0.9191748E-01 -0.5495850E-01
  0.1500340E+01 -0.1523320E+02 -0.2568960E-01  0.2052313E+00  0.2427513E+01  0.1550926E+00 -0.1344105E+00
  0.2986230E+01 -0.1501280E+02 -0.2568960E-01  0.3136370E+00  0.2356440E+01  0.2218292E+00 -0.2217205E+00
  0.4443360E+01 -0.1464780E+02 -0.2568960E-01  0.3387399E+00  0.2352740E+01  0.2386965E+00 -0.2403512E+00
  0.5857700E+01 -0.1414170E+02 -0.2568960E-01  0.3539778E+00  0.2357086E+01  0.2505231E+00 -0.2500769E+00
  0.7215620E+01 -0.1349950E+02 -0.2568960E-01  0.3654340E+00  0.2364927E+01  0.2606474E+00 -0.2561345E+00
  0.8504060E+01 -0.1272720E+02 -0.2568960E-01  0.3697140E+00  0.2376929E+01  0.2667913E+00 -0.2559508E+00
  0.9710600E+01 -0.1183240E+02 -0.2568960E-01  0.3768308E+00  0.2385621E+01  0.2741840E+00 -0.2585045E+00
  0.1082360E+02 -0.1082360E+02 -0.2568960E-01  0.3808207E+00  0.2394723E+01  0.2794534E+00 -0.2587087E+00
  0.1183240E+02 -0.9710590E+01 -0.2568960E-01  0.3828953E+00  0.2403384E+01  0.2832182E+00 -0.2576748E+00
  0.1272720E+02 -0.8504060E+01 -0.2568960E-01  0.3851889E+00  0.2409966E+01  0.2866147E+00 -0.2573373E+00
  0.1349950E+02 -0.7215620E+01 -0.2568960E-01  0.3867352E+00  0.2414445E+01  0.2889195E+00 -0.2570790E+00
  0.1414170E+02 -0.5857700E+01 -0.2568960E-01  0.3856423E+00  0.2417917E+01  0.2889915E+00 -0.2553504E+00
  0.1464780E+02 -0.4443350E+01 -0.2568960E-01  0.3808268E+00  0.2422301E+01  0.2864856E+00 -0.2509084E+00
  0.1501280E+02 -0.2986230E+01 -0.2568960E-01  0.3750450E+00  0.2424683E+01  0.2827240E+00 -0.2464263E+00
  0.1523320E+02 -0.1500330E+01 -0.2568960E-01  0.3693111E+00  0.2423739E+01  0.2781723E+00 -0.2429216E+00
  0.1530690E+02  0.0000000E+00 -0.1027320E+00  0.3623823E+00  0.2418926E+01  0.2718028E+00 -0.2396751E+00
  0.1523320E+02  0.1500340E+01 -0.1027320E+00  0.3563796E+00  0.2411211E+01  0.2654742E+00 -0.2377601E+00
  0.1501280E+02  0.2986230E+01 -0.1027320E+00  0.3503927E+00  0.2397957E+01  0.2578933E+00 -0.2372047E+00
  0.1464780E+02  0.4443360E+01 -0.1027320E+00  0.3442557E+00  0.2379262E+01  0.2489754E+00 -0.2377461E+00
  0.1414170E+02  0.5857700E+01 -0.1027320E+00  0.3370517E+00  0.2357427E+01  0.2386251E+00 -0.2380377E+00
  0.1349950E+02  0.7215620E+01 -0.1027320E+00  0.3264395E+00  0.2338152E+01  0.2266255E+00 -0.2349545E+00
  0.1272720E+02  0.8504060E+01 -0.1027320E+00  0.3134715E+00  0.2320458E+01  0.2135967E+00 -0.2294360E+00
  0.1183240E+02  0.9710600E+01 -0.1027320E+00  0.2995256E+00  0.2300666E+01  0.1997155E+00 -0.2232248E+00
  0.1082360E+02  0.1082360E+02 -0.1027320E+00  0.2855881E+00  0.2274234E+01  0.1847308E+00 -0.2177960E+00
  0.9710590E+01  0.1183240E+02 -0.1027320E+00  0.2696149E+00  0.2246775E+01  0.1686876E+00 -0.2103252E+00
  0.8504060E+01  0.1272720E+02 -0.1027320E+00  0.2495575E+00  0.2223562E+01  0.1515778E+00 -0.1982501E+00
  0.7215620E+01  0.1349950E+02 -0.1027320E+00  0.2302363E+00  0.2191140E+01  0.1338397E+00 -0.1873384E+00
  0.5857700E+01  0.1414170E+02 -0.1027320E+00  0.2029216E+00  0.2174429E+01  0.1151858E+00 -0.1670611E+00
  0.4443360E+01  0.1464780E+02 -0.1027320E+00  0.1679290E+00  0.2177898E+01  0.9580176E-01 -0.1379209E+00
  0.2986230E+01  0.1501280E+02 -0.1027320E+00  0.1123850E+00  0.2329525E+01  0.7732084E-01 -0.8155902E-01
  0.1500340E+01  0.1523320E+02 -0.1027320E+00  0.1180683E+00 -0.2155072E+01  0.6512594E-01  0.9848215E-01
 -0.6690860E-06  0.1530690E+02 -0.1027320E+00  0.2042810E+00 -0.1786823E+01  0.4378764E-01  0.1995329E+00
 -0.1500340E+01  0.1523320E+02 -0.1027320E+00  0.2806384E+00 -0.1617668E+01  0.1314910E-01  0.2803302E+00
 -0.2986230E+01  0.1501280E+02 -0.1027320E+00  0.3738964E+00 -0.1462704E+01 -0.4033676E-01  0.3717142E+00
 -0.4443360E+01  0.1464780E+02 -0.1027320E+00  0.4002981E+00 -0.1372585E+01 -0.7882513E-01  0.3924605E+00
 -0.5857700E+01  0.1414170E+02 -0.1027320E+00  0.4179808E+00 -0.1305852E+01 -0.1094504E+00  0.4033963E+00
 -0.7215620E+01  0.1349950E+02 -0.1027320E+00  0.4322758E+00 -0.1250206E+01 -0.1362216E+00  0.4102512E+00
 -0.8504060E+01  0.1272720E+02 -0.1027320E+00  0.4408121E+00 -0.1199594E+01 -0.1598983E+00  0.4107893E+00
 -0.9710590E+01  0.1183240E+02 -0.1027320E+00  0.4517302E+00 -0.1157288E+01 -0.1815163E+00  0.4136568E+00
 -0.1082360E+02  0.1082360E+02 -0.1027320E+00  0.4600478E+00 -0.1119662E+01 -0.2005745E+00  0.4140215E+00
 -0.1183240E+02  0.9710590E+01 -0.1027320E+00  0.4667896E+00 -0.1086049E+01 -0.2175170E+00  0.4130120E+00
 -0.1272720E+02  0.8504060E+01 -0.1027320E+00  0.4736136E+00 -0.1057269E+01 -0.2326642E+00  0.4125254E+00
 -0.1349950E+02  0.7215620E+01 -0.1027320E+00  0.4797626E+00 -0.1032697E+01 -0.2458806E+00  0.4119647E+00
 -0.1414170E+02  0.5857690E+01 -0.1027320E+00  0.4838167E+00 -0.1010794E+01 -0.2569976E+00  0.4099156E+00
 -0.1464780E+02  0.4443360E+01 -0.1027320E+00  0.4844597E+00 -0.9905475E+00 -0.2655963E+00  0.4051663E+00
 -0.1501280E+02  0.2986230E+01 -0.1027320E+00  0.4840460E+00 -0.9738215E+00 -0.2721031E+00  0.4003254E+00
 -0.1523320E+02  0.1500340E+01 -0.1027320E+00  0.4834170E+00 -0.9613250E+00 -0.2767244E+00  0.3963782E+00
 -0.1530690E+02 -0.1338170E-05 -0.1027320E+00  0.4826567E+00 -0.9531128E+00 -0.2795298E+00  0.3934725E+00
 -0.1523320E+02 -0.1500340E+01 -0.1027320E+00  0.4811615E+00 -0.9485401E+00 -0.2804546E+00  0.3909752E+00
 -0.1501280E+02 -0.2986230E+01 -0.1027320E+00  0.4800650E+00 -0.9479109E+00 -0.2800609E+00  0.3899081E+00
 -0.1464780E+02 -0.4443360E+01 -0.1027320E+00  0.4791962E+00 -0.9509026E+00 -0.2783884E+00  0.3900370E+00
 -0.1414170E+02 -0.5857700E+01 -0.1027320E+00  0.4772106E+00 -0.9566267E+00 -0.2750070E+00  0.3900014E+00
 -0.1349950E+02 -0.7215620E+01 -0.1027320E+00  0.4707390E+00 -0.9636964E+00 -0.2685510E+00  0.3866207E+00
 -0.1272720E+02 -0.8504060E+01 -0.1027320E+00  0.4606354E+00 -0.9731186E+00 -0.2592107E+00  0.3807818E+00
 -0.1183240E+02 -0.9710600E+01 -0.1027320E+00  0.4489818E+00 -0.9854751E+00 -0.2480477E+00  0.3742419E+00
 -0.1082360E+02 -0.1082360E+02 -0.1027320E+00  0.4377417E+00 -0.1000840E+01 -0.2362034E+00  0.3685455E+00
 -0.9710600E+01 -0.1183240E+02 -0.1027320E+00  0.4237669E+00 -0.1018746E+01 -0.2222377E+00  0.3608168E+00
 -0.8504050E+01 -0.1272720E+02 -0.1027320E+00  0.4043745E+00 -0.1038739E+01 -0.2051421E+00  0.3484760E+00
 -0.7215620E+01 -0.1349950E+02 -0.1027320E+00  0.3862541E+00 -0.1061635E+01 -0.1882775E+00  0.3372592E+00
 -0.5857690E+01 -0.1414170E+02 -0.1027320E+00  0.3573574E+00 -0.1088269E+01 -0.1658207E+00  0.3165562E+00
 -0.4443360E+01 -0.1464780E+02 -0.1027320E+00  0.3186118E+00 -0.1119906E+01 -0.1388405E+00  0.2867695E+00
 -0.2986230E+01 -0.1501280E+02 -0.1027320E+00  0.2489787E+00 -0.1168181E+01 -0.9755634E-01  0.2290702E+00
 -0.1500340E+01 -0.1523320E+02 -0.1027320E+00  0.4952202E-01 -0.1932024E+01  0.1750221E-01  0.4632606E-01
  0.1825330E-06 -0.1530690E+02 -0.1027320E+00  0.1066779E+00  0.2602654E+01  0.9155671E-01 -0.5474983E-01
  0.1500340E+01 -0.1523320E+02 -0.1027320E+00  0.2045182E+00  0.2427297E+01  0.1545247E+00 -0.1339769E+00
  0.2986230E+01 -0.1501280E+02 -0.1027320E+00  0.3124669E+00  0.2356341E+01  0.2209799E+00 -0.2209151E+00
  0.4443360E+01 -0.1464780E+02 -0.1027320E+00  0.3375099E+00  0.2352626E+01  0.2378024E+00 -0.2395056E+00
  0.5857700E+01 -0.1414170E+02 -0.1027320E+00  0.3526694E+00  0.2356988E+01  0.2495726E+00 -0.2491771E+00
  0.7215620E+01 -0.1349950E+02 -0.1027320E+00  0.3639816E+00  0.2364876E+01  0.2595985E+00 -0.2551299E+00
  0.8504060E+01 -0.1272720E+02 -0.1027320E+00  0.3683608E+00  0.2376801E+01  0.2657823E+00 -0.2550480E+00
  0.9710600E+01 -0.1183240E+02 -0.1027320E+00  0.3753674E+00  0.2385546E+01  0.2731000E+00 -0.2575210E+00
  0.1082360E+02 -0.1082360E+02 -0.1027320E+00  0.3793430E+00  0.2394650E+01  0.2783502E+00 -0.2577252E+00
  0.1183240E+02 -0.9710590E+01 -0.1027320E+00  0.3814261E+00  0.2403295E+01  0.2821085E+00 -0.2567113E+00
  0.1272720E+02 -0.8504060E+01 -0.1027320E+00  0.3836793E+00  0.2409896E+01  0.2854735E+00 -0.2563488E+00
  0.1349950E+02 -0.7215620E+01 -0.1027320E+00  0.3851666E+00  0.2414412E+01  0.2877393E+00 -0.2560458E+00
  0.1414170E+02 -0.5857700E+01 -0.1027320E+00  0.3840584E+00  0.2417912E+01  0.2878034E+00 -0.2543031E+00
  0.1464780E+02 -0.4443350E+01 -0.1027320E+00  0.3793063E+00  0.2422248E+01  0.2853284E+00 -0.2499218E+00
  0.1501280E+02 -0.2986230E+01 -0.1027320E+00  0.3735953E+00  0.2424579E+01  0.2816055E+00 -0.2455030E+00
  0.1523320E+02 -0.1500330E+01 -0.1027320E+00  0.3679074E+00  0.2423588E+01  0.2770783E+00 -0.2420403E+00
  0.1530690E+02  0.0000000E+00 -0.2310450E+00  0.3600958E+00  0.2418659E+01  0.2700243E+00 -0.2382349E+00
  0.1523320E+02  0.1500340E+01 -0.2310450E+00  0.3541240E+00  0.2410931E+01  0.2637278E+00 -0.2363290E+00
  0.1501280E+02  0.2986230E+01 -0.2310450E+00  0.3481370E+00  0.2397753E+01  0.2561850E+00 -0.2357299E+00
  0.1464780E+02  0.4443360E+01 -0.2310450E+00  0.3419722E+00  0.2379210E+01  0.2473118E+00 -0.2361818E+00
  0.1414170E+02  0.5857700E+01 -0.2310450E+00  0.3347514E+00  0.2357537E+01  0.2370226E+00 -0.2363869E+00
  0.1349950E+02  0.7215620E+01 -0.2310450E+00  0.3242398E+00  0.2338218E+01  0.2251139E+00 -0.2333563E+00
  0.1272720E+02  0.8504060E+01 -0.2310450E+00  0.3114345E+00  0.2320352E+01  0.2121846E+00 -0.2279675E+00
  0.1183240E+02  0.9710600E+01 -0.2310450E+00  0.2976290E+00  0.2300416E+01  0.1983954E+00 -0.2218609E+00
  0.1082360E+02  0.1082360E+02 -0.2310450E+00  0.2837499E+00  0.2274082E+01  0.1835089E+00 -0.2164221E+00
  0.9710590E+01  0.1183240E+02 -0.2310450E+00  0.2678667E+00  0.2246697E+01  0.1675775E+00 -0.2089744E+00
  0.8504060E+01  0.1272720E+02 -0.2310450E+00  0.2480665E+00  0.2223154E+01  0.1505916E+00 -0.1971272E+00
  0.7215620E+01  0.1349950E+02 -0.2310450E+00  0.2287104E+00  0.2191200E+01  0.1329639E+00 -0.1860888E+00
  0.5857700E+01  0.1414170E+02 -0.2310450E+00  0.2016875E+00  0.2174154E+01  0.1144395E+00 -0.1660766E+00
  0.4443360E+01  0.1464780E+02 -0.2310450E+00  0.1668854E+00  0.2177885E+01  0.9520456E-01 -0.1370651E+00
  0.2986230E+01  0.1501280E+02 -0.2310450E+00  0.1117405E+00  0.2329032E+01  0.7683744E-01 -0.8112924E-01
  0.1500340E+01  0.1523320E+02 -0.2310450E+00  0.1172645E+00 -0.2155583E+01  0.6473255E-01  0.9777869E-01
 -0.6690860E-06  0.1530690E+02 -0.2310450E+00  0.2028666E+00 -0.1786848E+01  0.4348943E-01  0.1981502E+00
 -0.1500340E+01  0.1523320E+02 -0.2310450E+00  0.2788710E+00 -0.1617725E+01  0.1308231E-01  0.2785640E+00
 -0.2986230E+01  0.1501280E+02 -0.2310450E+00  0.3715399E+00 -0.1462797E+01 -0.4004826E-01  0.3693752E+00
 -0.4443360E+01  0.1464780E+02 -0.2310450E+00  0.3977724E+00 -0.1372745E+01 -0.7826552E-01  0.3899967E+00
 -0.5857700E+01  0.1414170E+02 -0.2310450E+00  0.4153165E+00 -0.1305969E+01 -0.1087058E+00  0.4008377E+00
 -0.7215620E+01  0.1349950E+02 -0.2310450E+00  0.4293893E+00 -0.1250245E+01 -0.1352963E+00  0.4075170E+00
 -0.8504060E+01  0.1272720E+02 -0.2310450E+00  0.4380305E+00 -0.1199735E+01 -0.1588317E+00  0.4082195E+00
 -0.9710590E+01  0.1183240E+02 -0.2310450E+00  0.4487564E+00 -0.1157370E+01 -0.1802874E+00  0.4109486E+00
 -0.1082360E+02  0.1082360E+02 -0.2310450E+00  0.4570238E+00 -0.1119736E+01 -0.1992259E+00  0.4113147E+00
 -0.1183240E+02  0.9710590E+01 -0.2310450E+00  0.4637441E+00 -0.1086138E+01 -0.2160612E+00  0.4103367E+00
 -0.1272720E+02  0.8504060E+01 -0.2310450E+00  0.4704795E+00 -0.1057330E+01 -0.2310992E+00  0.4098099E+00
 -0.1349950E+02  0.7215620E+01 -0.2310450E+00  0.4765137E+00 -0.1032696E+01 -0.2442160E+00  0.4091745E+00
 -0.1414170E+02  0.5857690E+01 -0.2310450E+00  0.4805071E+00 -0.1010767E+01 -0.2552507E+00  0.4071046E+00
 -0.1464780E+02  0.4443360E+01 -0.2310450E+00  0.4812124E+00 -0.9905756E+00 -0.2638047E+00  0.4024580E+00
 -0.1501280E+02  0.2986230E+01 -0.2310450E+00  0.4808744E+00 -0.9739054E+00 -0.2702868E+00  0.3977250E+00
 -0.1523320E+02  0.1500340E+01 -0.2310450E+00  0.4802941E+00 -0.9614418E+00 -0.2748907E+00  0.3938497E+00
 -0.1530690E+02 -0.1338170E-05 -0.2310450E+00  0.4795528E+00 -0.9532356E+00 -0.2776842E+00  0.3909762E+00
 -0.1523320E+02 -0.1500340E+01 -0.2310450E+00  0.4780664E+00 -0.9486530E+00 -0.2786067E+00  0.3884917E+00
 -0.1501280E+02 -0.2986230E+01 -0.2310450E+00  0.4769310E+00 -0.9479935E+00 -0.2782005E+00  0.3873856E+00
 -0.1464780E+02 -0.4443360E+01 -0.2310450E+00  0.4759759E+00 -0.9509432E+00 -0.2765018E+00  0.3874272E+00
 -0.1414170E+02 -0.5857700E+01 -0.2310450E+00  0.4739109E+00 -0.9566373E+00 -0.2731013E+00  0.3873076E+00
 -0.1349950E+02 -0.7215620E+01 -0.2310450E+00  0.4675138E+00 -0.9637315E+00 -0.2666976E+00  0.3839812E+00
 -0.1272720E+02 -0.8504060E+01 -0.2310450E+00  0.4575839E+00 -0.9731750E+00 -0.2574722E+00  0.3782738E+00
 -0.1183240E+02 -0.9710600E+01 -0.2310450E+00  0.4460812E+00 -0.9855453E+00 -0.2464191E+00  0.3718414E+00
 -0.1082360E+02 -0.1082360E+02 -0.2310450E+00  0.4348667E+00 -0.1000890E+01 -0.2346339E+00  0.3661366E+00
 -0.9710600E+01 -0.1183240E+02 -0.2310450E+00  0.4209564E+00 -0.1018782E+01 -0.2207511E+00  0.3584316E+00
 -0.8504050E+01 -0.1272720E+02 -0.2310450E+00  0.4018635E+00 -0.1038783E+01 -0.2038530E+00  0.3463210E+00
 -0.7215620E+01 -0.1349950E+02 -0.2310450E+00  0.3836333E+00 -0.1061678E+01 -0.1869858E+00  0.3349788E+00
 -0.5857690E+01 -0.1414170E+02 -0.2310450E+00  0.3550841E+00 -0.1088275E+01 -0.1647639E+00  0.3145434E+00
 -0.4443360E+01 -0.1464780E+02 -0.2310450E+00  0.3165201E+00 -0.1119902E+01 -0.1379303E+00  0.2848863E+00
 -0.2986230E+01 -0.1501280E+02 -0.2310450E+00  0.2474105E+00 -0.1168138E+01 -0.9695167E-01  0.2276232E+00
 -0.1500340E+01 -0.1523320E+02 -0.2310450E+00  0.4920168E-01 -0.1931844E+01  0.1738073E-01  0.4602950E-01
  0.1825330E-06 -0.1530690E+02 -0.2310450E+00  0.1059445E+00  0.2602794E+01  0.9093493E-01 -0.5436068E-01
  0.1500340E+01 -0.1523320E+02 -0.2310450E+00  0.2032937E+00  0.2426996E+01  0.1535595E+00 -0.1332209E+00
  0.2986230E+01 -0.1501280E+02 -0.2310450E+00  0.3105710E+00  0.2356156E+01  0.2195983E+00 -0.2196154E+00
  0.4443360E+01 -0.1464780E+02 -0.2310450E+00  0.3354594E+00  0.2352429E+01  0.2363108E+00 -0.2380970E+00
  0.5857700E+01 -0.1414170E+02 -0.2310450E+00  0.3504914E+00  0.2356827E+01  0.2479916E+00 -0.2476779E+00
  0.7215620E+01 -0.1349950E+02 -0.2310450E+00  0.3615716E+00  0.2364793E+01  0.2578588E+00 -0.2534619E+00
  0.8504060E+01 -0.1272720E+02 -0.2310450E+00  0.3661127E+00  0.2376588E+01  0.2641061E+00 -0.2535478E+00
  0.9710600E+01 -0.1183240E+02 -0.2310450E+00  0.3729351E+00  0.2385422E+01  0.2712987E+00 -0.2558858E+00
  0.1082360E+02 -0.1082360E+02 -0.2310450E+00  0.3768889E+00  0.2394530E+01  0.2765188E+00 -0.2560910E+00
  0.1183240E+02 -0.9710590E+01 -0.2310450E+00  0.3789867E+00  0.2403153E+01  0.2802683E+00 -0.2551091E+00
  0.1272720E+02 -0.8504060E+01 -0.2310450E+00  0.3811701E+00  0.2409779E+01  0.2835768E+00 -0.2547054E+00
  0.1349950E+02 -0.7215620E+01 -0.2310450E+00  0.3825634E+00  0.2414370E+01  0.2857838E+00 -0.2543272E+00
  0.1414170E+02 -0.5857700E+01 -0.2310450E+00  0.3814266E+00  0.2417910E+01  0.2858305E+00 -0.2525613E+00
  0.1464780E+02 -0.4443350E+01 -0.2310450E+00  0.3767803E+00  0.2422173E+01  0.2834098E+00 -0.2482787E+00
  0.1501280E+02 -0.2986230E+01 -0.2310450E+00  0.3711807E+00  0.2424410E+01  0.2797441E+00 -0.2439638E+00
  0.1523320E+02 -0.1500330E+01 -0.2310450E+00  0.3655756E+00  0.2423353E+01  0.2752658E+00 -0.2405707E+00
  0.1530690E+02  0.0000000E+00 -0.4105000E+00  0.3569328E+00  0.2418258E+01  0.2675579E+00 -0.2362494E+00
  0.1523320E+02  0.1500340E+01 -0.4105000E+00  0.3510077E+00  0.2410523E+01  0.2613114E+00 -0.2343561E+00
  0.1501280E+02  0.2986230E+01 -0.4105000E+00  0.3450150E+00  0.2397442E+01  0.2538149E+00 -0.2336949E+00
  0.1464780E+02  0.4443360E+01 -0.4105000E+00  0.3388122E+00  0.2379128E+01  0.2450071E+00 -0.2340197E+00
  0.1414170E+02  0.5857700E+01 -0.4105000E+00  0.3315651E+00  0.2357685E+01  0.2348012E+00 -0.2341022E+00
  0.1349950E+02  0.7215620E+01 -0.4105000E+00  0.3211931E+00  0.2338317E+01  0.2230215E+00 -0.2311416E+00
  0.1272720E+02  0.8504060E+01 -0.4105000E+00  0.3086074E+00  0.2320208E+01  0.2102258E+00 -0.2259283E+00
  0.1183240E+02  0.9710600E+01 -0.4105000E+00  0.2949946E+00  0.2300077E+01  0.1965648E+00 -0.2199638E+00
  0.1082360E+02  0.1082360E+02 -0.4105000E+00  0.2811969E+00  0.2273893E+01  0.1818172E+00 -0.2145092E+00
  0.9710590E+01  0.1183240E+02 -0.4105000E+00  0.2654324E+00  0.2246600E+01  0.1660344E+00 -0.2070915E+00
  0.8504060E+01  0.1272720E+02 -0.4105000E+00  0.2459838E+00  0.2222599E+01  0.1492189E+00 -0.1955550E+00
  0.7215620E+01  0.1349950E+02 -0.4105000E+00  0.2265678E+00  0.2191371E+01  0.1317497E+00 -0.1843230E+00
  0.5857700E+01  0.1414170E+02 -0.4105000E+00  0.1999587E+00  0.2173836E+01  0.1134064E+00 -0.1646891E+00
  0.4443360E+01  0.1464780E+02 -0.4105000E+00  0.1654293E+00  0.2177878E+01  0.9437300E-01 -0.1358697E+00
  0.2986230E+01  0.1501280E+02 -0.4105000E+00  0.1108743E+00  0.2327941E+01  0.7615390E-01 -0.8058348E-01
  0.1500340E+01  0.1523320E+02 -0.4105000E+00  0.1162634E+00 -0.2155724E+01  0.6419358E-01  0.9693484E-01
 -0.6690860E-06  0.1530690E+02 -0.4105000E+00  0.2009869E+00 -0.1786989E+01  0.4311416E-01  0.1963082E+00
 -0.1500340E+01  0.1523320E+02 -0.4105000E+00  0.2763549E+00 -0.1617897E+01  0.1301179E-01  0.2760484E+00
 -0.2986230E+01  0.1501280E+02 -0.4105000E+00  0.3682567E+00 -0.1462867E+01 -0.3966844E-01  0.3661140E+00
 -0.4443360E+01  0.1464780E+02 -0.4105000E+00  0.3942438E+00 -0.1372946E+01 -0.7749340E-01  0.3865527E+00
 -0.5857700E+01  0.1414170E+02 -0.4105000E+00  0.4115992E+00 -0.1306118E+01 -0.1076737E+00  0.3972660E+00
 -0.7215620E+01  0.1349950E+02 -0.4105000E+00  0.4253626E+00 -0.1250274E+01 -0.1340159E+00  0.4036992E+00
 -0.8504060E+01  0.1272720E+02 -0.4105000E+00  0.4341645E+00 -0.1199920E+01 -0.1573554E+00  0.4046457E+00
 -0.9710590E+01  0.1183240E+02 -0.4105000E+00  0.4446319E+00 -0.1157469E+01 -0.1785901E+00  0.4071892E+00
 -0.1082360E+02  0.1082360E+02 -0.4105000E+00  0.4528280E+00 -0.1119832E+01 -0.1973578E+00  0.4075575E+00