 VARIABLES="X" "Y" "Z" "abs(eta) (m)" "angle(phi) (rad)" "PRE1" "PRE2"
ZONE N=   3200 ,E =    3136 ,F=FEPOINT,ET=QUADRILATERAL
  0.1530690E+02  0.0000000E+00  0.0000000E+00  0.7889388E-01  0.1994648E+01  0.3244701E-01 -0.7191269E-01
  0.1523320E+02  0.1500340E+01  0.0000000E+00  0.7657903E-01  0.1987253E+01  0.3097795E-01 -0.7003367E-01
  0.1501280E+02  0.2986230E+01  0.0000000E+00  0.7433499E-01  0.1978045E+01  0.2944291E-01 -0.6825544E-01
  0.1464780E+02  0.4443360E+01  0.0000000E+00  0.7180480E-01  0.1969751E+01  0.2789298E-01 -0.6616578E-01
  0.1414170E+02  0.5857700E+01  0.0000000E+00  0.6877908E-01  0.1964911E+01  0.2641053E-01 -0.6350627E-01
  0.1349950E+02  0.7215620E+01  0.0000000E+00  0.6521865E-01  0.1964802E+01  0.2503682E-01 -0.6022151E-01
  0.1272720E+02  0.8504060E+01  0.0000000E+00  0.6138178E-01  0.1967913E+01  0.2374009E-01 -0.5660504E-01
  0.1183240E+02  0.9710600E+01  0.0000000E+00  0.5783880E-01  0.1967041E+01  0.2232330E-01 -0.5335725E-01
  0.1082360E+02  0.1082360E+02  0.0000000E+00  0.5410350E-01  0.1966957E+01  0.2087740E-01 -0.4991316E-01
  0.9710590E+01  0.1183240E+02  0.0000000E+00  0.4904659E-01  0.1984075E+01  0.1969782E-01 -0.4491730E-01
  0.8504060E+01  0.1272720E+02  0.0000000E+00  0.4406797E-01  0.2004341E+01  0.1851251E-01 -0.3999091E-01
  0.7215620E+01  0.1349950E+02  0.0000000E+00  0.3771422E-01  0.2057952E+01  0.1765458E-01 -0.3332683E-01
  0.5857700E+01  0.1414170E+02  0.0000000E+00  0.2957651E-01  0.2190430E+01  0.1717617E-01 -0.2407798E-01
  0.4443360E+01  0.1464780E+02  0.0000000E+00  0.2057750E-01  0.2602266E+01  0.1765662E-01 -0.1056774E-01
  0.2986230E+01  0.1501280E+02  0.0000000E+00  0.2615485E-01 -0.2505237E+01  0.2103548E-01  0.1554300E-01
  0.1500340E+01  0.1523320E+02  0.0000000E+00  0.1032837E+00 -0.1942462E+01  0.3750933E-01  0.9623192E-01
 -0.6690860E-06  0.1530690E+02  0.0000000E+00  0.1407794E+00 -0.1877762E+01  0.4253892E-01  0.1341986E+00
 -0.1500340E+01  0.1523320E+02  0.0000000E+00  0.1618168E+00 -0.1831197E+01  0.4166265E-01  0.1563615E+00
 -0.2986230E+01  0.1501280E+02  0.0000000E+00  0.1687496E+00 -0.1757791E+01  0.3137174E-01  0.1658078E+00
 -0.4443360E+01  0.1464780E+02  0.0000000E+00  0.1646131E+00 -0.1714932E+01  0.2364463E-01  0.1629061E+00
 -0.5857700E+01  0.1414170E+02  0.0000000E+00  0.1611980E+00 -0.1682976E+01  0.1804524E-01  0.1601848E+00
 -0.7215620E+01  0.1349950E+02  0.0000000E+00  0.1590740E+00 -0.1656831E+01  0.1366902E-01  0.1584857E+00
 -0.8504060E+01  0.1272720E+02  0.0000000E+00  0.1563036E+00 -0.1633487E+01  0.9792358E-02  0.1559965E+00
 -0.9710590E+01  0.1183240E+02  0.0000000E+00  0.1534984E+00 -0.1612490E+01  0.6398054E-02  0.1533650E+00
 -0.1082360E+02  0.1082360E+02  0.0000000E+00  0.1516745E+00 -0.1593979E+01  0.3515923E-02  0.1516337E+00
 -0.1183240E+02  0.9710590E+01  0.0000000E+00  0.1497152E+00 -0.1577831E+01  0.1053149E-02  0.1497114E+00
 -0.1272720E+02  0.8504060E+01  0.0000000E+00  0.1478126E+00 -0.1563436E+01 -0.1087970E-02  0.1478086E+00
 -0.1349950E+02  0.7215620E+01  0.0000000E+00  0.1461784E+00 -0.1550731E+01 -0.2932898E-02  0.1461490E+00
 -0.1414170E+02  0.5857690E+01  0.0000000E+00  0.1446879E+00 -0.1540007E+01 -0.4454151E-02  0.1446194E+00
 -0.1464780E+02  0.4443360E+01  0.0000000E+00  0.1430144E+00 -0.1530975E+01 -0.5693455E-02  0.1429010E+00
 -0.1501280E+02  0.2986230E+01  0.0000000E+00  0.1410607E+00 -0.1523612E+01 -0.6653451E-02  0.1409037E+00
 -0.1523320E+02  0.1500340E+01  0.0000000E+00  0.1388152E+00 -0.1517992E+01 -0.7326616E-02  0.1386218E+00
 -0.1530690E+02 -0.1338170E-05  0.0000000E+00  0.1365482E+00 -0.1513815E+01 -0.7776453E-02  0.1363266E+00
 -0.1523320E+02 -0.1500340E+01  0.0000000E+00  0.1346829E+00 -0.1510357E+01 -0.8135229E-02  0.1344370E+00
 -0.1501280E+02 -0.2986230E+01  0.0000000E+00  0.1329093E+00 -0.1508206E+01 -0.8313377E-02  0.1326491E+00
 -0.1464780E+02 -0.4443360E+01  0.0000000E+00  0.1308067E+00 -0.1507825E+01 -0.8231587E-02  0.1305474E+00
 -0.1414170E+02 -0.5857700E+01  0.0000000E+00  0.1281084E+00 -0.1509776E+01 -0.7812309E-02  0.1278700E+00
 -0.1349950E+02 -0.7215620E+01  0.0000000E+00  0.1247583E+00 -0.1514403E+01 -0.7031800E-02  0.1245600E+00
 -0.1272720E+02 -0.8504060E+01  0.0000000E+00  0.1210603E+00 -0.1521395E+01 -0.5978090E-02  0.1209126E+00
 -0.1183240E+02 -0.9710600E+01  0.0000000E+00  0.1177347E+00 -0.1528954E+01 -0.4924834E-02  0.1176316E+00
 -0.1082360E+02 -0.1082360E+02  0.0000000E+00  0.1142108E+00 -0.1537964E+01 -0.3749088E-02  0.1141493E+00
 -0.9710600E+01 -0.1183240E+02  0.0000000E+00  0.1091244E+00 -0.1551904E+01 -0.2061540E-02  0.1091050E+00
 -0.8504050E+01 -0.1272720E+02  0.0000000E+00  0.1041220E+00 -0.1567509E+01 -0.3422779E-03  0.1041214E+00
 -0.7215620E+01 -0.1349950E+02  0.0000000E+00  0.9740173E-01 -0.1590394E+01  0.1908682E-02  0.9738303E-01
 -0.5857690E+01 -0.1414170E+02  0.0000000E+00  0.8817369E-01 -0.1625438E+01  0.4815526E-02  0.8804209E-01
 -0.4443360E+01 -0.1464780E+02  0.0000000E+00  0.7493611E-01 -0.1690709E+01  0.8964274E-02  0.7439800E-01
 -0.2986230E+01 -0.1501280E+02  0.0000000E+00  0.5096358E-01 -0.1910074E+01  0.1696100E-01  0.4805842E-01
 -0.1500340E+01 -0.1523320E+02  0.0000000E+00  0.5423138E-01  0.2484973E+01  0.4295453E-01 -0.3310515E-01
  0.1825330E-06 -0.1530690E+02  0.0000000E+00  0.8982411E-01  0.2227105E+01  0.5481040E-01 -0.7116313E-01
  0.1500340E+01 -0.1523320E+02  0.0000000E+00  0.1109953E+00  0.2144908E+01  0.6028034E-01 -0.9319995E-01
  0.2986230E+01 -0.1501280E+02  0.0000000E+00  0.1172002E+00  0.2083461E+01  0.5748675E-01 -0.1021330E+00
  0.4443360E+01 -0.1464780E+02  0.0000000E+00  0.1123740E+00  0.2063952E+01  0.5319879E-01 -0.9898390E-01
  0.5857700E+01 -0.1414170E+02  0.0000000E+00  0.1084428E+00  0.2052276E+01  0.5021889E-01 -0.9611402E-01
  0.7215620E+01 -0.1349950E+02  0.0000000E+00  0.1058837E+00  0.2042695E+01  0.4813242E-01 -0.9431138E-01
  0.8504060E+01 -0.1272720E+02  0.0000000E+00  0.1026926E+00  0.2036867E+01  0.4614796E-01 -0.9173952E-01
  0.9710600E+01 -0.1183240E+02  0.0000000E+00  0.9946613E-01  0.2032650E+01  0.4432293E-01 -0.8904487E-01
  0.1082360E+02 -0.1082360E+02  0.0000000E+00  0.9721778E-01  0.2027232E+01  0.4284891E-01 -0.8726551E-01
  0.1183240E+02 -0.9710590E+01  0.0000000E+00  0.9484562E-01  0.2023060E+01  0.4144783E-01 -0.8530984E-01
  0.1272720E+02 -0.8504060E+01  0.0000000E+00  0.9252715E-01  0.2019138E+01  0.4010789E-01 -0.8338244E-01
  0.1349950E+02 -0.7215620E+01  0.0000000E+00  0.9046712E-01  0.2014569E+01  0.3884206E-01 -0.8170431E-01
  0.1414170E+02 -0.5857700E+01  0.0000000E+00  0.8855695E-01  0.2009632E+01  0.3762661E-01 -0.8016589E-01
  0.1464780E+02 -0.4443350E+01  0.0000000E+00  0.8647215E-01  0.2005012E+01  0.3637870E-01 -0.7844757E-01
  0.1501280E+02 -0.2986230E+01  0.0000000E+00  0.8412705E-01  0.2001074E+01  0.3509131E-01 -0.7645888E-01
  0.1523320E+02 -0.1500330E+01  0.0000000E+00  0.8152287E-01  0.1998148E+01  0.3378812E-01 -0.7419125E-01
  0.1530690E+02  0.0000000E+00 -0.2568960E-01  0.7883222E-01  0.1994676E+01  0.3242366E-01 -0.7185558E-01
  0.1523320E+02  0.1500340E+01 -0.2568960E-01  0.7651848E-01  0.1987284E+01  0.3095559E-01 -0.6997734E-01
  0.1501280E+02  0.2986230E+01 -0.2568960E-01  0.7427521E-01  0.1978087E+01  0.2942210E-01 -0.6819931E-01
  0.1464780E+02  0.4443360E+01 -0.2568960E-01  0.7174796E-01  0.1969800E+01  0.2787412E-01 -0.6611205E-01
  0.1414170E+02  0.5857700E+01 -0.2568960E-01  0.6872708E-01  0.1964945E+01  0.2639276E-01 -0.6345734E-01
  0.1349950E+02  0.7215620E+01 -0.2568960E-01  0.6517398E-01  0.1964800E+01  0.2501953E-01 -0.6018033E-01
  0.1272720E+02  0.8504060E+01 -0.2568960E-01  0.6134464E-01  0.1967860E+01  0.2372271E-01 -0.5657206E-01
  0.1183240E+02  0.9710600E+01 -0.2568960E-01  0.5780328E-01  0.1966993E+01  0.2230699E-01 -0.5332559E-01
  0.1082360E+02  0.1082360E+02 -0.2568960E-01  0.5406671E-01  0.1966959E+01  0.2086331E-01 -0.4987917E-01
  0.9710590E+01  0.1183240E+02 -0.2568960E-01  0.4902051E-01  0.1983975E+01  0.1968285E-01 -0.4489539E-01
  0.8504060E+01  0.1272720E+02 -0.2568960E-01  0.4404167E-01  0.2004293E+01  0.1849957E-01 -0.3996792E-01
  0.7215620E+01  0.1349950E+02 -0.2568960E-01  0.3769641E-01  0.2057791E+01  0.1764087E-01 -0.3331394E-01
  0.5857700E+01  0.1414170E+02 -0.2568960E-01  0.2955866E-01  0.2190404E+01  0.1716519E-01 -0.2406389E-01
  0.4443360E+01  0.1464780E+02 -0.2568960E-01  0.2056825E-01  0.2601823E+01  0.1764400E-01 -0.1057082E-01
  0.2986230E+01  0.1501280E+02 -0.2568960E-01  0.2614060E-01 -0.2505250E+01  0.2102422E-01  0.1553426E-01
  0.1500340E+01  0.1523320E+02 -0.2568960E-01  0.1031902E+00 -0.1942516E+01  0.3748055E-01  0.9614270E-01
 -0.6690860E-06  0.1530690E+02 -0.2568960E-01  0.1406766E+00 -0.1877766E+01  0.4250849E-01  0.1341005E+00
 -0.1500340E+01  0.1523320E+02 -0.2568960E-01  0.1617142E+00 -0.1831187E+01  0.4163469E-01  0.1562627E+00
 -0.2986230E+01  0.1501280E+02 -0.2568960E-01  0.1686520E+00 -0.1757810E+01  0.3135675E-01  0.1657113E+00
 -0.4443360E+01  0.1464780E+02 -0.2568960E-01  0.1645086E+00 -0.1714942E+01  0.2363110E-01  0.1628025E+00
 -0.5857700E+01  0.1414170E+02 -0.2568960E-01  0.1610935E+00 -0.1682992E+01  0.1803610E-01  0.1600806E+00
 -0.7215620E+01  0.1349950E+02 -0.2568960E-01  0.1589661E+00 -0.1656835E+01  0.1366037E-01  0.1583781E+00
 -0.8504060E+01  0.1272720E+02 -0.2568960E-01  0.1561959E+00 -0.1633495E+01  0.9786831E-02  0.1558890E+00
 -0.9710590E+01  0.1183240E+02 -0.2568960E-01  0.1533958E+00 -0.1612499E+01  0.6395231E-02  0.1532625E+00
 -0.1082360E+02  0.1082360E+02 -0.2568960E-01  0.1515682E+00 -0.1593992E+01  0.3515391E-02  0.1515274E+00
 -0.1183240E+02  0.9710590E+01 -0.2568960E-01  0.1496105E+00 -0.1577838E+01  0.1053568E-02  0.1496068E+00
 -0.1272720E+02  0.8504060E+01 -0.2568960E-01  0.1477093E+00 -0.1563447E+01 -0.1085564E-02  0.1477053E+00
 -0.1349950E+02  0.7215620E+01 -0.2568960E-01  0.1460736E+00 -0.1550740E+01 -0.2929453E-02  0.1460442E+00
 -0.1414170E+02  0.5857690E+01 -0.2568960E-01  0.1445803E+00 -0.1540007E+01 -0.4450853E-02  0.1445118E+00
 -0.1464780E+02  0.4443360E+01 -0.2568960E-01  0.1429050E+00 -0.1530979E+01 -0.5688571E-02  0.1427917E+00
 -0.1501280E+02  0.2986230E+01 -0.2568960E-01  0.1409515E+00 -0.1523611E+01 -0.6648393E-02  0.1407946E+00
 -0.1523320E+02  0.1500340E+01 -0.2568960E-01  0.1387085E+00 -0.1517991E+01 -0.7321199E-02  0.1385152E+00
 -0.1530690E+02 -0.1338170E-05 -0.2568960E-01  0.1364442E+00 -0.1513815E+01 -0.7770538E-02  0.1362227E+00
 -0.1523320E+02 -0.1500340E+01 -0.2568960E-01  0.1345794E+00 -0.1510363E+01 -0.8128181E-02  0.1343337E+00
 -0.1501280E+02 -0.2986230E+01 -0.2568960E-01  0.1328057E+00 -0.1508219E+01 -0.8305137E-02  0.1325458E+00
 -0.1464780E+02 -0.4443360E+01 -0.2568960E-01  0.1307055E+00 -0.1507840E+01 -0.8223304E-02  0.1304466E+00
 -0.1414170E+02 -0.5857700E+01 -0.2568960E-01  0.1280124E+00 -0.1509790E+01 -0.7804672E-02  0.1277743E+00
 -0.1349950E+02 -0.7215620E+01 -0.2568960E-01  0.1246705E+00 -0.1514407E+01 -0.7026312E-02  0.1244723E+00
 -0.1272720E+02 -0.8504060E+01 -0.2568960E-01  0.1209800E+00 -0.1521395E+01 -0.5974146E-02  0.1208324E+00
 -0.1183240E+02 -0.9710600E+01 -0.2568960E-01  0.1176554E+00 -0.1528954E+01 -0.4921557E-02  0.1175524E+00
 -0.1082360E+02 -0.1082360E+02 -0.2568960E-01  0.1141297E+00 -0.1537969E+01 -0.3745860E-02  0.1140682E+00
 -0.9710600E+01 -0.1183240E+02 -0.2568960E-01  0.1090556E+00 -0.1551889E+01 -0.2061816E-02  0.1090362E+00
 -0.8504050E+01 -0.1272720E+02 -0.2568960E-01  0.1040522E+00 -0.1567504E+01 -0.3426154E-03  0.1040516E+00
 -0.7215620E+01 -0.1349950E+02 -0.2568960E-01  0.9734208E-01 -0.1590372E+01  0.1905420E-02  0.9732343E-01
 -0.5857690E+01 -0.1414170E+02 -0.2568960E-01  0.8811276E-01 -0.1625444E+01  0.4812738E-02  0.8798123E-01
 -0.4443360E+01 -0.1464780E+02 -0.2568960E-01  0.7489120E-01 -0.1690673E+01  0.8956188E-02  0.7435374E-01
 -0.2986230E+01 -0.1501280E+02 -0.2568960E-01  0.5092478E-01 -0.1910142E+01  0.1695133E-01  0.4802068E-01
 -0.1500340E+01 -0.1523320E+02 -0.2568960E-01  0.5417706E-01  0.2485203E+01  0.4291908E-01 -0.3306215E-01
  0.1825330E-06 -0.1530690E+02 -0.2568960E-01  0.8975895E-01  0.2227119E+01  0.5477161E-01 -0.7111075E-01
  0.1500340E+01 -0.1523320E+02 -0.2568960E-01  0.1109296E+00  0.2144866E+01  0.6024078E-01 -0.9314734E-01
  0.2986230E+01 -0.1501280E+02 -0.2568960E-01  0.1171408E+00  0.2083429E+01  0.5745440E-01 -0.1020831E+00
  0.4443360E+01 -0.1464780E+02 -0.2568960E-01  0.1123084E+00  0.2063928E+01  0.5316532E-01 -0.9892738E-01
  0.5857700E+01 -0.1414170E+02 -0.2568960E-01  0.1083774E+00  0.2052257E+01  0.5018681E-01 -0.9605694E-01
  0.7215620E+01 -0.1349950E+02 -0.2568960E-01  0.1058151E+00  0.2042687E+01  0.4810052E-01 -0.9425057E-01
  0.8504060E+01 -0.1272720E+02 -0.2568960E-01  0.1026248E+00  0.2036869E+01  0.4611764E-01 -0.9167881E-01
  0.9710600E+01 -0.1183240E+02 -0.2568960E-01  0.9940377E-01  0.2032639E+01  0.4429420E-01 -0.8898951E-01
  0.1082360E+02 -0.1082360E+02 -0.2568960E-01  0.9715195E-01  0.2027236E+01  0.4282026E-01 -0.8720623E-01
  0.1183240E+02 -0.9710590E+01 -0.2568960E-01  0.9478185E-01  0.2023063E+01  0.4142021E-01 -0.8525236E-01
  0.1272720E+02 -0.8504060E+01 -0.2568960E-01  0.9246489E-01  0.2019145E+01  0.4008147E-01 -0.8332606E-01
  0.1349950E+02 -0.7215620E+01 -0.2568960E-01  0.9040388E-01  0.2014582E+01  0.3881594E-01 -0.8164670E-01
  0.1414170E+02 -0.5857700E+01 -0.2568960E-01  0.8849108E-01  0.2009647E+01  0.3759983E-01 -0.8010571E-01
  0.1464780E+02 -0.4443350E+01 -0.2568960E-01  0.8640508E-01  0.2005040E+01  0.3635273E-01 -0.7838569E-01
  0.1501280E+02 -0.2986230E+01 -0.2568960E-01  0.8406027E-01  0.2001110E+01  0.3506623E-01 -0.7639691E-01
  0.1523320E+02 -0.1500330E+01 -0.2568960E-01  0.8145859E-01  0.1998176E+01  0.3376360E-01 -0.7413178E-01
  0.1530690E+02  0.0000000E+00 -0.1027320E+00  0.7865415E-01  0.1994701E+01  0.3235224E-01 -0.7169245E-01
  0.1523320E+02  0.1500340E+01 -0.1027320E+00  0.7634363E-01  0.1987342E+01  0.3088891E-01 -0.6981566E-01
  0.1501280E+02  0.2986230E+01 -0.1027320E+00  0.7410293E-01  0.1978188E+01  0.2936076E-01 -0.6803815E-01
  0.1464780E+02  0.4443360E+01 -0.1027320E+00  0.7158296E-01  0.1969914E+01  0.2781750E-01 -0.6595685E-01
  0.1414170E+02  0.5857700E+01 -0.1027320E+00  0.6857672E-01  0.1965016E+01  0.2633947E-01 -0.6331665E-01
  0.1349950E+02  0.7215620E+01 -0.1027320E+00  0.6504553E-01  0.1964757E+01  0.2496766E-01 -0.6006277E-01
  0.1272720E+02  0.8504060E+01 -0.1027320E+00  0.6123595E-01  0.1967684E+01  0.2367077E-01 -0.5647598E-01
  0.1183240E+02  0.9710600E+01 -0.1027320E+00  0.5769882E-01  0.1966848E+01  0.2225899E-01 -0.5323243E-01
  0.1082360E+02  0.1082360E+02 -0.1027320E+00  0.5395844E-01  0.1966960E+01  0.2082160E-01 -0.4977925E-01
  0.9710590E+01  0.1183240E+02 -0.1027320E+00  0.4894453E-01  0.1983687E+01  0.1963943E-01 -0.4483145E-01
  0.8504060E+01  0.1272720E+02 -0.1027320E+00  0.4396440E-01  0.2004133E+01  0.1846072E-01 -0.3990076E-01
  0.7215620E+01  0.1349950E+02 -0.1027320E+00  0.3763464E-01  0.2057484E+01  0.1760175E-01 -0.3326476E-01
  0.5857700E+01  0.1414170E+02 -0.1027320E+00  0.2950756E-01  0.2190282E+01  0.1713258E-01 -0.2402438E-01
  0.4443360E+01  0.1464780E+02 -0.1027320E+00  0.2053950E-01  0.2600455E+01  0.1760488E-01 -0.1058013E-01
  0.2986230E+01  0.1501280E+02 -0.1027320E+00  0.2610527E-01 -0.2505053E+01  0.2099275E-01  0.1551740E-01
  0.1500340E+01  0.1523320E+02 -0.1027320E+00  0.1028934E+00 -0.1942661E+01  0.3738663E-01  0.9586080E-01
 -0.6690860E-06  0.1530690E+02 -0.1027320E+00  0.1403837E+00 -0.1877787E+01  0.4242269E-01  0.1338204E+00
 -0.1500340E+01  0.1523320E+02 -0.1027320E+00  0.1613874E+00 -0.1831139E+01  0.4154296E-01  0.1559490E+00
 -0.2986230E+01  0.1501280E+02 -0.1027320E+00  0.1683505E+00 -0.1757855E+01  0.3130817E-01  0.1654137E+00
 -0.4443360E+01  0.1464780E+02 -0.1027320E+00  0.1641974E+00 -0.1714957E+01  0.2358898E-01  0.1624941E+00
 -0.5857700E+01  0.1414170E+02 -0.1027320E+00  0.1607866E+00 -0.1683028E+01  0.1800750E-01  0.1597750E+00
 -0.7215620E+01  0.1349950E+02 -0.1027320E+00  0.1586386E+00 -0.1656849E+01  0.1363440E-01  0.1580516E+00
 -0.8504060E+01  0.1272720E+02 -0.1027320E+00  0.1558772E+00 -0.1633516E+01  0.9770123E-02  0.1555707E+00
 -0.9710590E+01  0.1183240E+02 -0.1027320E+00  0.1530929E+00 -0.1612524E+01  0.6386302E-02  0.1529597E+00
 -0.1082360E+02  0.1082360E+02 -0.1027320E+00  0.1512534E+00 -0.1594016E+01  0.3511769E-02  0.1512126E+00
 -0.1183240E+02  0.9710590E+01 -0.1027320E+00  0.1493022E+00 -0.1577859E+01  0.1054490E-02  0.1492985E+00
 -0.1272720E+02  0.8504060E+01 -0.1027320E+00  0.1474051E+00 -0.1563468E+01 -0.1080286E-02  0.1474012E+00
 -0.1349950E+02  0.7215620E+01 -0.1027320E+00  0.1457664E+00 -0.1550759E+01 -0.2920526E-02  0.1457371E+00
 -0.1414170E+02  0.5857690E+01 -0.1027320E+00  0.1442648E+00 -0.1540020E+01 -0.4439219E-02  0.1441965E+00
 -0.1464780E+02  0.4443360E+01 -0.1027320E+00  0.1425848E+00 -0.1530986E+01 -0.5674900E-02  0.1424718E+00
 -0.1501280E+02  0.2986230E+01 -0.1027320E+00  0.1406321E+00 -0.1523615E+01 -0.6632811E-02  0.1404756E+00
 -0.1523320E+02  0.1500340E+01 -0.1027320E+00  0.1383961E+00 -0.1517988E+01 -0.7305061E-02  0.1382031E+00
 -0.1530690E+02 -0.1338170E-05 -0.1027320E+00  0.1361398E+00 -0.1513811E+01 -0.7753791E-02  0.1359188E+00
 -0.1523320E+02 -0.1500340E+01 -0.1027320E+00  0.1342766E+00 -0.1510365E+01 -0.8109576E-02  0.1340315E+00
 -0.1501280E+02 -0.2986230E+01 -0.1027320E+00  0.1325034E+00 -0.1508238E+01 -0.8283764E-02  0.1322442E+00
 -0.1464780E+02 -0.4443360E+01 -0.1027320E+00  0.1304088E+00 -0.1507870E+01 -0.8200738E-02  0.1301507E+00
 -0.1414170E+02 -0.5857700E+01 -0.1027320E+00  0.1277302E+00 -0.1509820E+01 -0.7783707E-02  0.1274928E+00
 -0.1349950E+02 -0.7215620E+01 -0.1027320E+00  0.1244114E+00 -0.1514416E+01 -0.7010594E-02  0.1242138E+00
 -0.1272720E+02 -0.8504060E+01 -0.1027320E+00  0.1207433E+00 -0.1521372E+01 -0.5965192E-02  0.1205959E+00
 -0.1183240E+02 -0.9710600E+01 -0.1027320E+00  0.1174211E+00 -0.1528937E+01 -0.4913734E-02  0.1173183E+00
 -0.1082360E+02 -0.1082360E+02 -0.1027320E+00  0.1138890E+00 -0.1537989E+01 -0.3735667E-02  0.1138277E+00
 -0.9710600E+01 -0.1183240E+02 -0.1027320E+00  0.1088514E+00 -0.1551851E+01 -0.2062089E-02  0.1088319E+00
 -0.8504050E+01 -0.1272720E+02 -0.1027320E+00  0.1038447E+00 -0.1567499E+01 -0.3424435E-03  0.1038442E+00
 -0.7215620E+01 -0.1349950E+02 -0.1027320E+00  0.9715303E-01 -0.1590328E+01  0.1897399E-02  0.9713450E-01
 -0.5857690E+01 -0.1414170E+02 -0.1027320E+00  0.8793299E-01 -0.1625454E+01  0.4803826E-02  0.8780167E-01
 -0.4443360E+01 -0.1464780E+02 -0.1027320E+00  0.7475954E-01 -0.1690554E+01  0.8931639E-02  0.7422408E-01
 -0.2986230E+01 -0.1501280E+02 -0.1027320E+00  0.5080109E-01 -0.1910487E+01  0.1692668E-01  0.4789821E-01
 -0.1500340E+01 -0.1523320E+02 -0.1027320E+00  0.5400009E-01  0.2486050E+01  0.4280679E-01 -0.3291790E-01
  0.1825330E-06 -0.1530690E+02 -0.1027320E+00  0.8957792E-01  0.2227092E+01  0.5465918E-01 -0.7096885E-01
  0.1500340E+01 -0.1523320E+02 -0.1027320E+00  0.1107137E+00  0.2144770E+01  0.6011458E-01 -0.9297179E-01
  0.2986230E+01 -0.1501280E+02 -0.1027320E+00  0.1169545E+00  0.2083345E+01  0.5735446E-01 -0.1019256E+00
  0.4443360E+01 -0.1464780E+02 -0.1027320E+00  0.1121123E+00  0.2063849E+01  0.5306467E-01 -0.9875883E-01
  0.5857700E+01 -0.1414170E+02 -0.1027320E+00  0.1081876E+00  0.2052202E+01  0.5009360E-01 -0.9589155E-01
  0.7215620E+01 -0.1349950E+02 -0.1027320E+00  0.1056045E+00  0.2042667E+01  0.4800287E-01 -0.9406400E-01
  0.8504060E+01 -0.1272720E+02 -0.1027320E+00  0.1024245E+00  0.2036835E+01  0.4602451E-01 -0.9150146E-01
  0.9710600E+01 -0.1183240E+02 -0.1027320E+00  0.9921979E-01  0.2032587E+01  0.4420754E-01 -0.8882713E-01
  0.1082360E+02 -0.1082360E+02 -0.1027320E+00  0.9695701E-01  0.2027224E+01  0.4273324E-01 -0.8703179E-01
  0.1183240E+02 -0.9710590E+01 -0.1027320E+00  0.9459439E-01  0.2023047E+01  0.4133689E-01 -0.8508442E-01
  0.1272720E+02 -0.8504060E+01 -0.1027320E+00  0.9228230E-01  0.2019120E+01  0.4000031E-01 -0.8316247E-01
  0.1349950E+02 -0.7215620E+01 -0.1027320E+00  0.9021945E-01  0.2014574E+01  0.3873608E-01 -0.8148047E-01
  0.1414170E+02 -0.5857700E+01 -0.1027320E+00  0.8829919E-01  0.2009675E+01  0.3752052E-01 -0.7993095E-01
  0.1464780E+02 -0.4443350E+01 -0.1027320E+00  0.8620937E-01  0.2005091E+01  0.3627436E-01 -0.7820631E-01
  0.1501280E+02 -0.2986230E+01 -0.1027320E+00  0.8386603E-01  0.2001172E+01  0.3498991E-01 -0.7621822E-01
  0.1523320E+02 -0.1500330E+01 -0.1027320E+00  0.8127178E-01  0.1998219E+01  0.3368931E-01 -0.7396034E-01
  0.1530690E+02  0.0000000E+00 -0.2310450E+00  0.7835680E-01  0.1994759E+01  0.3223406E-01 -0.7141955E-01
  0.1523320E+02  0.1500340E+01 -0.2310450E+00  0.7605220E-01  0.1987451E+01  0.3077861E-01 -0.6954578E-01
  0.1501280E+02  0.2986230E+01 -0.2310450E+00  0.7381469E-01  0.1978367E+01  0.2925871E-01 -0.6776825E-01
  0.1464780E+02  0.4443360E+01 -0.2310450E+00  0.7130683E-01  0.1970131E+01  0.2772449E-01 -0.6569640E-01
  0.1414170E+02  0.5857700E+01 -0.2310450E+00  0.6832527E-01  0.1965167E+01  0.2625244E-01 -0.6308051E-01
  0.1349950E+02  0.7215620E+01 -0.2310450E+00  0.6482846E-01  0.1964715E+01  0.2488179E-01 -0.5986338E-01
  0.1272720E+02  0.8504060E+01 -0.2310450E+00  0.6105300E-01  0.1967420E+01  0.2358517E-01 -0.5631349E-01
  0.1183240E+02  0.9710600E+01 -0.2310450E+00  0.5752089E-01  0.1966648E+01  0.2217970E-01 -0.5307272E-01
  0.1082360E+02  0.1082360E+02 -0.2310450E+00  0.5377552E-01  0.1966981E+01  0.2075204E-01 -0.4961007E-01
  0.9710590E+01  0.1183240E+02 -0.2310450E+00  0.4881470E-01  0.1983230E+01  0.1956687E-01 -0.4472150E-01
  0.8504060E+01  0.1272720E+02 -0.2310450E+00  0.4383298E-01  0.2003908E+01  0.1839658E-01 -0.3978562E-01
  0.7215620E+01  0.1349950E+02 -0.2310450E+00  0.3752920E-01  0.2056997E+01  0.1753628E-01 -0.3318010E-01
  0.5857700E+01  0.1414170E+02 -0.2310450E+00  0.2942118E-01  0.2190045E+01  0.1707674E-01 -0.2395810E-01
  0.4443360E+01  0.1464780E+02 -0.2310450E+00  0.2048780E-01  0.2598819E+01  0.1754328E-01 -0.1058221E-01
  0.2986230E+01  0.1501280E+02 -0.2310450E+00  0.2602158E-01 -0.2505379E+01  0.2093049E-01  0.1546083E-01
  0.1500340E+01  0.1523320E+02 -0.2310450E+00  0.1025162E+00 -0.1942762E+01  0.3725923E-01  0.9550558E-01
 -0.6690860E-06  0.1530690E+02 -0.2310450E+00  0.1398894E+00 -0.1877804E+01  0.4227560E-01  0.1333485E+00
 -0.1500340E+01  0.1523320E+02 -0.2310450E+00  0.1608714E+00 -0.1831137E+01  0.4140983E-01  0.1554504E+00
 -0.2986230E+01  0.1501280E+02 -0.2310450E+00  0.1678475E+00 -0.1757910E+01  0.3122354E-01  0.1649178E+00
 -0.4443360E+01  0.1464780E+02 -0.2310450E+00  0.1636789E+00 -0.1714989E+01  0.2351962E-01  0.1619803E+00
 -0.5857700E+01  0.1414170E+02 -0.2310450E+00  0.1602746E+00 -0.1683080E+01  0.1795840E-01  0.1592654E+00
 -0.7215620E+01  0.1349950E+02 -0.2310450E+00  0.1580943E+00 -0.1656865E+01  0.1359025E-01  0.1575091E+00
 -0.8504060E+01  0.1272720E+02 -0.2310450E+00  0.1553468E+00 -0.1633540E+01  0.9740613E-02  0.1550412E+00
 -0.9710590E+01  0.1183240E+02 -0.2310450E+00  0.1525885E+00 -0.1612561E+01  0.6371031E-02  0.1524555E+00
 -0.1082360E+02  0.1082360E+02 -0.2310450E+00  0.1507290E+00 -0.1594057E+01  0.3505676E-02  0.1506883E+00
 -0.1183240E+02  0.9710590E+01 -0.2310450E+00  0.1487883E+00 -0.1577893E+01  0.1055958E-02  0.1487846E+00
 -0.1272720E+02  0.8504060E+01 -0.2310450E+00  0.1468989E+00 -0.1563498E+01 -0.1072177E-02  0.1468949E+00
 -0.1349950E+02  0.7215620E+01 -0.2310450E+00  0.1452549E+00 -0.1550789E+01 -0.2905935E-02  0.1452259E+00
 -0.1414170E+02  0.5857690E+01 -0.2310450E+00  0.1437400E+00 -0.1540044E+01 -0.4419582E-02  0.1436721E+00
 -0.1464780E+02  0.4443360E+01 -0.2310450E+00  0.1420517E+00 -0.1530995E+01 -0.5652320E-02  0.1419392E+00
 -0.1501280E+02  0.2986230E+01 -0.2310450E+00  0.1401003E+00 -0.1523616E+01 -0.6607541E-02  0.1399444E+00
 -0.1523320E+02  0.1500340E+01 -0.2310450E+00  0.1378759E+00 -0.1517981E+01 -0.7278535E-02  0.1376836E+00
 -0.1530690E+02 -0.1338170E-05 -0.2310450E+00  0.1356330E+00 -0.1513801E+01 -0.7726204E-02  0.1354128E+00
 -0.1523320E+02 -0.1500340E+01 -0.2310450E+00  0.1337727E+00 -0.1510376E+01 -0.8077629E-02  0.1335286E+00
 -0.1501280E+02 -0.2986230E+01 -0.2310450E+00  0.1319990E+00 -0.1508277E+01 -0.8247096E-02  0.1317411E+00
 -0.1464780E+02 -0.4443360E+01 -0.2310450E+00  0.1299136E+00 -0.1507929E+01 -0.8161887E-02  0.1296570E+00
 -0.1414170E+02 -0.5857700E+01 -0.2310450E+00  0.1272593E+00 -0.1509874E+01 -0.7748130E-02  0.1270232E+00
 -0.1349950E+02 -0.7215620E+01 -0.2310450E+00  0.1239785E+00 -0.1514439E+01 -0.6983420E-02  0.1237816E+00
 -0.1272720E+02 -0.8504060E+01 -0.2310450E+00  0.1203474E+00 -0.1521346E+01 -0.5948775E-02  0.1202003E+00
 -0.1183240E+02 -0.9710600E+01 -0.2310450E+00  0.1170289E+00 -0.1528920E+01 -0.4899273E-02  0.1169263E+00
 -0.1082360E+02 -0.1082360E+02 -0.2310450E+00  0.1134864E+00 -0.1538022E+01 -0.3718755E-02  0.1134255E+00
 -0.9710600E+01 -0.1183240E+02 -0.2310450E+00  0.1085092E+00 -0.1551784E+01 -0.2062906E-02  0.1084896E+00
 -0.8504050E+01 -0.1272720E+02 -0.2310450E+00  0.1034974E+00 -0.1567476E+01 -0.3436751E-03  0.1034969E+00
 -0.7215620E+01 -0.1349950E+02 -0.2310450E+00  0.9683585E-01 -0.1590263E+01  0.1884976E-02  0.9681750E-01
 -0.5857690E+01 -0.1414170E+02 -0.2310450E+00  0.8763454E-01 -0.1625453E+01  0.4787450E-02  0.8750367E-01
 -0.4443360E+01 -0.1464780E+02 -0.2310450E+00  0.7452700E-01 -0.1690420E+01  0.8893920E-02  0.7399441E-01
 -0.2986230E+01 -0.1501280E+02 -0.2310450E+00  0.5061869E-01 -0.1910661E+01  0.1687422E-01  0.4772329E-01
 -0.1500340E+01 -0.1523320E+02 -0.2310450E+00  0.5380374E-01  0.2486206E+01  0.4265627E-01 -0.3279154E-01
  0.1825330E-06 -0.1530690E+02 -0.2310450E+00  0.8926877E-01  0.2227063E+01  0.5446852E-01 -0.7072548E-01
  0.1500340E+01 -0.1523320E+02 -0.2310450E+00  0.1103815E+00  0.2144622E+01  0.5992048E-01 -0.9270179E-01
  0.2986230E+01 -0.1501280E+02 -0.2310450E+00  0.1166393E+00  0.2083184E+01  0.5718355E-01 -0.1016601E+00
  0.4443360E+01 -0.1464780E+02 -0.2310450E+00  0.1117845E+00  0.2063728E+01  0.5289757E-01 -0.9847648E-01
  0.5857700E+01 -0.1414170E+02 -0.2310450E+00  0.1078686E+00  0.2052094E+01  0.4993556E-01 -0.9561425E-01
  0.7215620E+01 -0.1349950E+02 -0.2310450E+00  0.1052537E+00  0.2042623E+01  0.4783928E-01 -0.9375363E-01
  0.8504060E+01 -0.1272720E+02 -0.2310450E+00  0.1020893E+00  0.2036781E+01  0.4586904E-01 -0.9120449E-01
  0.9710600E+01 -0.1183240E+02 -0.2310450E+00  0.9891231E-01  0.2032501E+01  0.4406294E-01 -0.8855564E-01
  0.1082360E+02 -0.1082360E+02 -0.2310450E+00  0.9663220E-01  0.2027212E+01  0.4258909E-01 -0.8674071E-01
  0.1183240E+02 -0.9710590E+01 -0.2310450E+00  0.9428118E-01  0.2023013E+01  0.4119714E-01 -0.8480411E-01
  0.1272720E+02 -0.8504060E+01 -0.2310450E+00  0.9197806E-01  0.2019081E+01  0.3986517E-01 -0.8288988E-01
  0.1349950E+02 -0.7215620E+01 -0.2310450E+00  0.8991108E-01  0.2014567E+01  0.3860315E-01 -0.8120222E-01
  0.1414170E+02 -0.5857700E+01 -0.2310450E+00  0.8797999E-01  0.2009718E+01  0.3738828E-01 -0.7964041E-01
  0.1464780E+02 -0.4443350E+01 -0.2310450E+00  0.8588348E-01  0.2005177E+01  0.3614400E-01 -0.7790754E-01
  0.1501280E+02 -0.2986230E+01 -0.2310450E+00  0.8354221E-01  0.2001272E+01  0.3486243E-01 -0.7592043E-01
  0.1523320E+02 -0.1500330E+01 -0.2310450E+00  0.8096062E-01  0.1998307E+01  0.3356683E-01 -0.7367422E-01
  0.1530690E+02  0.0000000E+00 -0.4105000E+00  0.7794764E-01  0.1994816E+01  0.3206983E-01 -0.7104477E-01
  0.1523320E+02  0.1500340E+01 -0.4105000E+00  0.7565069E-01  0.1987581E+01  0.3062509E-01 -0.6917465E-01
  0.1501280E+02  0.2986230E+01 -0.4105000E+00  0.7341820E-01  0.1978605E+01  0.2911755E-01 -0.6739733E-01
  0.1464780E+02  0.4443360E+01 -0.4105000E+00  0.7092661E-01  0.1970402E+01  0.2759437E-01 -0.6533862E-01
  0.1414170E+02  0.5857700E+01 -0.4105000E+00  0.6797878E-01  0.1965340E+01  0.2613016E-01 -0.6275611E-01
  0.1349950E+02  0.7215620E+01 -0.4105000E+00  0.6453137E-01  0.1964625E+01  0.2476244E-01 -0.5959127E-01
  0.1272720E+02  0.8504060E+01 -0.4105000E+00  0.6080238E-01  0.1967016E+01  0.2346570E-01 -0.5609180E-01
  0.1183240E+02  0.9710600E+01 -0.4105000E+00  0.5727674E-01  0.1966342E+01  0.2206940E-01 -0.5285421E-01
  0.1082360E+02  0.1082360E+02 -0.4105000E+00  0.5352144E-01  0.1967012E+01  0.2065554E-01 -0.4937503E-01
  0.9710590E+01  0.1183240E+02 -0.4105000E+00  0.4863421E-01  0.1982598E+01  0.1946636E-01 -0.4456845E-01
  0.8504060E+01  0.1272720E+02 -0.4105000E+00  0.4364728E-01  0.2003638E+01  0.1830795E-01 -0.3962201E-01
  0.7215620E+01  0.1349950E+02 -0.4105000E+00  0.3736566E-01  0.2056694E+01  0.1744984E-01 -0.3304082E-01
  0.5857700E+01  0.1414170E+02 -0.4105000E+00  0.2928844E-01  0.2190130E+01  0.1700174E-01 -0.2384855E-01
  0.4443360E+01  0.1464780E+02 -0.4105000E+00  0.2040103E-01  0.2598117E+01  0.1746157E-01 -0.1054966E-01
  0.2986230E+01  0.1501280E+02 -0.4105000E+00  0.2590062E-01 -0.2505672E+01  0.2083770E-01  0.1538286E-01
  0.1500340E+01  0.1523320E+02 -0.4105000E+00  0.1020062E+00 -0.1942823E+01  0.3707971E-01  0.9502821E-01
 -0.6690860E-06  0.1530690E+02 -0.4105000E+00  0.1391564E+00 -0.1877804E+01  0.4205406E-01  0.1326497E+00
 -0.1500340E+01  0.1523320E+02 -0.4105000E+00  0.1600888E+00 -0.1831134E+01  0.4120801E-01  0.1546943E+00
 -0.2986230E+01  0.1501280E+02 -0.4105000E+00  0.1670806E+00 -0.1757945E+01  0.3108666E-01  0.1641632E+00
 -0.4443360E+01  0.1464780E+02 -0.4105000E+00  0.1629191E+00 -0.1715024E+01  0.2341604E-01  0.1612275E+00
 -0.5857700E+01  0.1414170E+02 -0.4105000E+00  0.1595461E+00 -0.1683145E+01  0.1788718E-01  0.1585402E+00
 -0.7215620E+01  0.1349950E+02 -0.4105000E+00  0.1573264E+00 -0.1656882E+01  0.1352687E-01  0.1567438E+00
 -0.8504060E+01  0.1272720E+02 -0.4105000E+00  0.1546097E+00 -0.1633574E+01  0.9699686E-02  0.1543051E+00
 -0.9710590E+01  0.1183240E+02 -0.4105000E+00  0.1518905E+00 -0.1612609E+01  0.6349076E-02  0.1517577E+00
 -0.1082360E+02  0.1082360E+02 -0.4105000E+00  0.1500043E+00 -0.1594106E+01  0.3496215E-02  0.1499636E+00