 VARIABLES="X" "Y" "Z" "abs(eta) (m)" "angle(phi) (rad)" "PRE1" "PRE2"
ZONE N=   3200 ,E =    3136 ,F=FEPOINT,ET=QUADRILATERAL
  0.1530690E+02  0.0000000E+00  0.0000000E+00  0.1889360E+00 -0.1240068E+01 -0.6135350E-01  0.1786969E+00
  0.1523320E+02  0.1500340E+01  0.0000000E+00  0.1912641E+00 -0.1246120E+01 -0.6101362E-01  0.1812713E+00
  0.1501280E+02  0.2986230E+01  0.0000000E+00  0.1933247E+00 -0.1254838E+01 -0.6007139E-01  0.1837549E+00
  0.1464780E+02  0.4443360E+01  0.0000000E+00  0.1953132E+00 -0.1266221E+01 -0.5857218E-01  0.1863238E+00
  0.1414170E+02  0.5857700E+01  0.0000000E+00  0.1969487E+00 -0.1280923E+01 -0.5629391E-01  0.1887321E+00
  0.1349950E+02  0.7215620E+01  0.0000000E+00  0.1984874E+00 -0.1299495E+01 -0.5319170E-01  0.1912274E+00
  0.1272720E+02  0.8504060E+01  0.0000000E+00  0.2000942E+00 -0.1320748E+01 -0.4951348E-01  0.1938714E+00
  0.1183240E+02  0.9710600E+01  0.0000000E+00  0.2016019E+00 -0.1344966E+01 -0.4514179E-01  0.1964829E+00
  0.1082360E+02  0.1082360E+02  0.0000000E+00  0.2033510E+00 -0.1373839E+01 -0.3979301E-01  0.1994196E+00
  0.9710590E+01  0.1183240E+02  0.0000000E+00  0.2052089E+00 -0.1408113E+01 -0.3323691E-01  0.2024994E+00
  0.8504060E+01  0.1272720E+02  0.0000000E+00  0.2074380E+00 -0.1445848E+01 -0.2585164E-01  0.2058209E+00
  0.7215620E+01  0.1349950E+02  0.0000000E+00  0.2089665E+00 -0.1488436E+01 -0.1719115E-01  0.2082581E+00
  0.5857700E+01  0.1414170E+02  0.0000000E+00  0.2111903E+00 -0.1537849E+01 -0.6956875E-02  0.2110757E+00
  0.4443360E+01  0.1464780E+02  0.0000000E+00  0.2153834E+00 -0.1599775E+01  0.6240749E-02  0.2152929E+00
  0.2986230E+01  0.1501280E+02  0.0000000E+00  0.2218977E+00 -0.1684681E+01  0.2521611E-01  0.2204603E+00
  0.1500340E+01  0.1523320E+02  0.0000000E+00  0.2283821E+00 -0.1833685E+01  0.5934985E-01  0.2205357E+00
 -0.6690860E-06  0.1530690E+02  0.0000000E+00  0.2099028E+00 -0.1901047E+01  0.6806730E-01  0.1985599E+00
 -0.1500340E+01  0.1523320E+02  0.0000000E+00  0.1682212E+00 -0.1955518E+01  0.6313367E-01  0.1559247E+00
 -0.2986230E+01  0.1501280E+02  0.0000000E+00  0.6733495E-01 -0.2076863E+01  0.3263996E-01  0.5889506E-01
 -0.4443360E+01  0.1464780E+02  0.0000000E+00  0.3635321E-01 -0.2372417E+01  0.2611921E-01  0.2528523E-01
 -0.5857700E+01  0.1414170E+02  0.0000000E+00  0.2619273E-01 -0.2871080E+01  0.2524021E-01  0.6999360E-02
 -0.7215620E+01  0.1349950E+02  0.0000000E+00  0.2718599E-01  0.2930660E+01  0.2658344E-01 -0.5691991E-02
 -0.8504060E+01  0.1272720E+02  0.0000000E+00  0.3284008E-01  0.2625957E+01  0.2857020E-01 -0.1619306E-01
 -0.9710590E+01  0.1183240E+02  0.0000000E+00  0.3914695E-01  0.2501353E+01  0.3139401E-01 -0.2338590E-01
 -0.1082360E+02  0.1082360E+02  0.0000000E+00  0.4576633E-01  0.2414351E+01  0.3418794E-01 -0.3042601E-01
 -0.1183240E+02  0.9710590E+01  0.0000000E+00  0.5181051E-01  0.2381280E+01  0.3754295E-01 -0.3570511E-01
 -0.1272720E+02  0.8504060E+01  0.0000000E+00  0.5753855E-01  0.2366467E+01  0.4110171E-01 -0.4026580E-01
 -0.1349950E+02  0.7215620E+01  0.0000000E+00  0.6312522E-01  0.2354158E+01  0.4454528E-01 -0.4472708E-01
 -0.1414170E+02  0.5857690E+01  0.0000000E+00  0.6889997E-01  0.2336466E+01  0.4774903E-01 -0.4967128E-01
 -0.1464780E+02  0.4443360E+01  0.0000000E+00  0.7447338E-01  0.2327389E+01  0.5112208E-01 -0.5415549E-01
 -0.1501280E+02  0.2986230E+01  0.0000000E+00  0.7974473E-01  0.2325580E+01  0.5463561E-01 -0.5808763E-01
 -0.1523320E+02  0.1500340E+01  0.0000000E+00  0.8457514E-01  0.2329039E+01  0.5815782E-01 -0.6140539E-01
 -0.1530690E+02 -0.1338170E-05  0.0000000E+00  0.8893596E-01  0.2335780E+01  0.6159040E-01 -0.6415784E-01
 -0.1523320E+02 -0.1500340E+01  0.0000000E+00  0.9298895E-01  0.2342463E+01  0.6484403E-01 -0.6664981E-01
 -0.1501280E+02 -0.2986230E+01  0.0000000E+00  0.9676319E-01  0.2347292E+01  0.6781007E-01 -0.6902833E-01
 -0.1464780E+02 -0.4443360E+01  0.0000000E+00  0.1003417E+00  0.2348918E+01  0.7043416E-01 -0.7146664E-01
 -0.1414170E+02 -0.5857700E+01  0.0000000E+00  0.1037545E+00  0.2350636E+01  0.7295658E-01 -0.7377210E-01
 -0.1349950E+02 -0.7215620E+01  0.0000000E+00  0.1072604E+00  0.2351476E+01  0.7548584E-01 -0.7620158E-01
 -0.1272720E+02 -0.8504060E+01  0.0000000E+00  0.1108351E+00  0.2350799E+01  0.7794825E-01 -0.7879396E-01
 -0.1183240E+02 -0.9710600E+01  0.0000000E+00  0.1143622E+00  0.2349804E+01  0.8034787E-01 -0.8138135E-01
 -0.1082360E+02 -0.1082360E+02  0.0000000E+00  0.1182749E+00  0.2347600E+01  0.8291111E-01 -0.8434863E-01
 -0.9710600E+01 -0.1183240E+02  0.0000000E+00  0.1224893E+00  0.2345429E+01  0.8567558E-01 -0.8754043E-01
 -0.8504050E+01 -0.1272720E+02  0.0000000E+00  0.1270504E+00  0.2342826E+01  0.8862916E-01 -0.9103113E-01
 -0.7215620E+01 -0.1349950E+02  0.0000000E+00  0.1309486E+00  0.2343891E+01  0.9144838E-01 -0.9372685E-01
 -0.5857690E+01 -0.1414170E+02  0.0000000E+00  0.1356800E+00  0.2346141E+01  0.9497093E-01 -0.9689993E-01
 -0.4443360E+01 -0.1464780E+02  0.0000000E+00  0.1427852E+00  0.2349317E+01  0.1002676E+00 -0.1016563E+00
 -0.2986230E+01 -0.1501280E+02  0.0000000E+00  0.1528591E+00  0.2359532E+01  0.1084478E+00 -0.1077264E+00
 -0.1500340E+01 -0.1523320E+02  0.0000000E+00  0.1619151E+00  0.2396633E+01  0.1190263E+00 -0.1097691E+00
  0.1825330E-06 -0.1530690E+02  0.0000000E+00  0.1394841E+00  0.2456012E+01  0.1079678E+00 -0.8831058E-01
  0.1500340E+01 -0.1523320E+02  0.0000000E+00  0.9357259E-01  0.2634509E+01  0.8179785E-01 -0.4544163E-01
  0.2986230E+01 -0.1501280E+02  0.0000000E+00  0.5737901E-01 -0.1953011E+01  0.2140101E-01  0.5323859E-01
  0.4443360E+01 -0.1464780E+02  0.0000000E+00  0.8760414E-01 -0.1575603E+01  0.4210713E-03  0.8760312E-01
  0.5857700E+01 -0.1414170E+02  0.0000000E+00  0.1069601E+00 -0.1460848E+01 -0.1173641E-01  0.1063142E+00
  0.7215620E+01 -0.1349950E+02  0.0000000E+00  0.1210502E+00 -0.1399127E+01 -0.2067863E-01  0.1192709E+00
  0.8504060E+01 -0.1272720E+02  0.0000000E+00  0.1330603E+00 -0.1354758E+01 -0.2852302E-01  0.1299672E+00
  0.9710600E+01 -0.1183240E+02  0.0000000E+00  0.1415658E+00 -0.1324608E+01 -0.3450092E-01  0.1372974E+00
  0.1082360E+02 -0.1082360E+02  0.0000000E+00  0.1499661E+00 -0.1298620E+01 -0.4031507E-01  0.1444456E+00
  0.1183240E+02 -0.9710590E+01  0.0000000E+00  0.1563767E+00 -0.1279578E+01 -0.4489882E-01  0.1497924E+00
  0.1272720E+02 -0.8504060E+01  0.0000000E+00  0.1619366E+00 -0.1264818E+01 -0.4877957E-01  0.1544151E+00
  0.1349950E+02 -0.7215620E+01  0.0000000E+00  0.1673350E+00 -0.1252815E+01 -0.5231731E-01  0.1589462E+00
  0.1414170E+02 -0.5857700E+01  0.0000000E+00  0.1731843E+00 -0.1243259E+01 -0.5571553E-01  0.1639774E+00
  0.1464780E+02 -0.4443350E+01  0.0000000E+00  0.1783364E+00 -0.1237617E+01 -0.5832476E-01  0.1685292E+00
  0.1501280E+02 -0.2986230E+01  0.0000000E+00  0.1826652E+00 -0.1235752E+01 -0.6006233E-01  0.1725083E+00
  0.1523320E+02 -0.1500330E+01  0.0000000E+00  0.1861762E+00 -0.1236657E+01 -0.6105765E-01  0.1758793E+00
  0.1530690E+02  0.0000000E+00 -0.2568960E-01  0.1887209E+00 -0.1240071E+01 -0.6128320E-01  0.1784935E+00
  0.1523320E+02  0.1500340E+01 -0.2568960E-01  0.1910478E+00 -0.1246126E+01 -0.6094358E-01  0.1810666E+00
  0.1501280E+02  0.2986230E+01 -0.2568960E-01  0.1931092E+00 -0.1254842E+01 -0.6000353E-01  0.1835503E+00
  0.1464780E+02  0.4443360E+01 -0.2568960E-01  0.1950981E+00 -0.1266230E+01 -0.5850589E-01  0.1861191E+00
  0.1414170E+02  0.5857700E+01 -0.2568960E-01  0.1967349E+00 -0.1280933E+01 -0.5623105E-01  0.1885277E+00
  0.1349950E+02  0.7215620E+01 -0.2568960E-01  0.1982736E+00 -0.1299508E+01 -0.5313187E-01  0.1910220E+00
  0.1272720E+02  0.8504060E+01 -0.2568960E-01  0.1998784E+00 -0.1320765E+01 -0.4945680E-01  0.1936631E+00
  0.1183240E+02  0.9710600E+01 -0.2568960E-01  0.2013838E+00 -0.1344991E+01 -0.4508807E-01  0.1962715E+00
  0.1082360E+02  0.1082360E+02 -0.2568960E-01  0.2031310E+00 -0.1373864E+01 -0.3974504E-01  0.1992048E+00
  0.9710590E+01  0.1183240E+02 -0.2568960E-01  0.2049877E+00 -0.1408131E+01 -0.3319760E-01  0.2022816E+00
  0.8504060E+01  0.1272720E+02 -0.2568960E-01  0.2072097E+00 -0.1445860E+01 -0.2582071E-01  0.2055946E+00
  0.7215620E+01  0.1349950E+02 -0.2568960E-01  0.2087461E+00 -0.1488454E+01 -0.1716925E-01  0.2080388E+00
  0.5857700E+01  0.1414170E+02 -0.2568960E-01  0.2109669E+00 -0.1537878E+01 -0.6943344E-02  0.2108526E+00
  0.4443360E+01  0.1464780E+02 -0.2568960E-01  0.2151520E+00 -0.1599785E+01  0.6236095E-02  0.2150616E+00
  0.2986230E+01  0.1501280E+02 -0.2568960E-01  0.2216768E+00 -0.1684752E+01  0.2520668E-01  0.2202390E+00
  0.1500340E+01  0.1523320E+02 -0.2568960E-01  0.2281216E+00 -0.1833615E+01  0.5926683E-01  0.2202883E+00
 -0.6690860E-06  0.1530690E+02 -0.2568960E-01  0.2096958E+00 -0.1901099E+01  0.6801052E-01  0.1983605E+00
 -0.1500340E+01  0.1523320E+02 -0.2568960E-01  0.1679575E+00 -0.1955542E+01  0.6303838E-01  0.1556787E+00
 -0.2986230E+01  0.1501280E+02 -0.2568960E-01  0.6728440E-01 -0.2076977E+01  0.3262220E-01  0.5884711E-01
 -0.4443360E+01  0.1464780E+02 -0.2568960E-01  0.3630120E-01 -0.2372750E+01  0.2609024E-01  0.2524037E-01
 -0.5857700E+01  0.1414170E+02 -0.2568960E-01  0.2616514E-01 -0.2871423E+01  0.2521602E-01  0.6983358E-02
 -0.7215620E+01  0.1349950E+02 -0.2568960E-01  0.2715919E-01  0.2929944E+01  0.2655315E-01 -0.5705397E-02
 -0.8504060E+01  0.1272720E+02 -0.2568960E-01  0.3280778E-01  0.2625922E+01  0.2854153E-01 -0.1617811E-01
 -0.9710590E+01  0.1183240E+02 -0.2568960E-01  0.3911233E-01  0.2501099E+01  0.3136030E-01 -0.2337318E-01
 -0.1082360E+02  0.1082360E+02 -0.2568960E-01  0.4572184E-01  0.2414285E+01  0.3415273E-01 -0.3039865E-01
 -0.1183240E+02  0.9710590E+01 -0.2568960E-01  0.5175988E-01  0.2381193E+01  0.3750319E-01 -0.3567347E-01
 -0.1272720E+02  0.8504060E+01 -0.2568960E-01  0.5748438E-01  0.2366318E+01  0.4105701E-01 -0.4023401E-01
 -0.1349950E+02  0.7215620E+01 -0.2568960E-01  0.6306518E-01  0.2354008E+01  0.4449619E-01 -0.4469122E-01
 -0.1414170E+02  0.5857690E+01 -0.2568960E-01  0.6883001E-01  0.2336401E+01  0.4769732E-01 -0.4962395E-01
 -0.1464780E+02  0.4443360E+01 -0.2568960E-01  0.7439366E-01  0.2327387E+01  0.5106724E-01 -0.5409763E-01
 -0.1501280E+02  0.2986230E+01 -0.2568960E-01  0.7965565E-01  0.2325604E+01  0.5457598E-01 -0.5802142E-01
 -0.1523320E+02  0.1500340E+01 -0.2568960E-01  0.8447880E-01  0.2329070E+01  0.5809348E-01 -0.6133364E-01
 -0.1530690E+02 -0.1338170E-05 -0.2568960E-01  0.8883487E-01  0.2335796E+01  0.6152141E-01 -0.6408394E-01
 -0.1523320E+02 -0.1500340E+01 -0.2568960E-01  0.9288449E-01  0.2342461E+01  0.6477110E-01 -0.6657501E-01
 -0.1501280E+02 -0.2986230E+01 -0.2568960E-01  0.9665686E-01  0.2347274E+01  0.6773432E-01 -0.6895369E-01
 -0.1464780E+02 -0.4443360E+01 -0.2568960E-01  0.1002343E+00  0.2348895E+01  0.7035711E-01 -0.7139186E-01
 -0.1414170E+02 -0.5857700E+01 -0.2568960E-01  0.1036466E+00  0.2350599E+01  0.7287796E-01 -0.7369821E-01
 -0.1349950E+02 -0.7215620E+01 -0.2568960E-01  0.1071510E+00  0.2351442E+01  0.7540631E-01 -0.7612645E-01
 -0.1272720E+02 -0.8504060E+01 -0.2568960E-01  0.1107218E+00  0.2350767E+01  0.7786608E-01 -0.7871591E-01
 -0.1183240E+02 -0.9710600E+01 -0.2568960E-01  0.1142457E+00  0.2349782E+01  0.8026420E-01 -0.8130029E-01
 -0.1082360E+02 -0.1082360E+02 -0.2568960E-01  0.1181540E+00  0.2347577E+01  0.8282438E-01 -0.8426437E-01
 -0.9710600E+01 -0.1183240E+02 -0.2568960E-01  0.1223644E+00  0.2345404E+01  0.8558603E-01 -0.8745322E-01
 -0.8504050E+01 -0.1272720E+02 -0.2568960E-01  0.1269152E+00  0.2342814E+01  0.8853385E-01 -0.9093529E-01
 -0.7215620E+01 -0.1349950E+02 -0.2568960E-01  0.1308205E+00  0.2343861E+01  0.9135615E-01 -0.9363785E-01
 -0.5857690E+01 -0.1414170E+02 -0.2568960E-01  0.1355457E+00  0.2346115E+01  0.9487434E-01 -0.9680647E-01
 -0.4443360E+01 -0.1464780E+02 -0.2568960E-01  0.1426381E+00  0.2349293E+01  0.1001619E+00 -0.1015541E+00
 -0.2986230E+01 -0.1501280E+02 -0.2568960E-01  0.1527236E+00  0.2359499E+01  0.1083482E+00 -0.1076344E+00
 -0.1500340E+01 -0.1523320E+02 -0.2568960E-01  0.1617301E+00  0.2396608E+01  0.1188876E+00 -0.1096466E+00
  0.1825330E-06 -0.1530690E+02 -0.2568960E-01  0.1393604E+00  0.2455963E+01  0.1078679E+00 -0.8823749E-01
  0.1500340E+01 -0.1523320E+02 -0.2568960E-01  0.9339729E-01  0.2634962E+01  0.8166512E-01 -0.4531955E-01
  0.2986230E+01 -0.1501280E+02 -0.2568960E-01  0.5730201E-01 -0.1953433E+01  0.2139473E-01  0.5315812E-01
  0.4443360E+01 -0.1464780E+02 -0.2568960E-01  0.8752095E-01 -0.1575544E+01  0.4155305E-03  0.8751997E-01
  0.5857700E+01 -0.1414170E+02 -0.2568960E-01  0.1068466E+00 -0.1460853E+01 -0.1172343E-01  0.1062014E+00
  0.7215620E+01 -0.1349950E+02 -0.2568960E-01  0.1209333E+00 -0.1399099E+01 -0.2066207E-01  0.1191551E+00
  0.8504060E+01 -0.1272720E+02 -0.2568960E-01  0.1329124E+00 -0.1354775E+01 -0.2848917E-01  0.1298232E+00
  0.9710600E+01 -0.1183240E+02 -0.2568960E-01  0.1414196E+00 -0.1324602E+01 -0.3446601E-01  0.1371554E+00
  0.1082360E+02 -0.1082360E+02 -0.2568960E-01  0.1498027E+00 -0.1298638E+01 -0.4026865E-01  0.1442889E+00
  0.1183240E+02 -0.9710590E+01 -0.2568960E-01  0.1562084E+00 -0.1279585E+01 -0.4484948E-01  0.1496315E+00
  0.1272720E+02 -0.8504060E+01 -0.2568960E-01  0.1617672E+00 -0.1264820E+01 -0.4872814E-01  0.1542537E+00
  0.1349950E+02 -0.7215620E+01 -0.2568960E-01  0.1671612E+00 -0.1252811E+01 -0.5226355E-01  0.1587809E+00
  0.1414170E+02 -0.5857700E+01 -0.2568960E-01  0.1729969E+00 -0.1243267E+01 -0.5565389E-01  0.1638004E+00
  0.1464780E+02 -0.4443350E+01 -0.2568960E-01  0.1781377E+00 -0.1237623E+01 -0.5825874E-01  0.1683418E+00
  0.1501280E+02 -0.2986230E+01 -0.2568960E-01  0.1824574E+00 -0.1235756E+01 -0.5999333E-01  0.1723122E+00
  0.1523320E+02 -0.1500330E+01 -0.2568960E-01  0.1859629E+00 -0.1236662E+01 -0.6098683E-01  0.1756781E+00
  0.1530690E+02  0.0000000E+00 -0.1027320E+00  0.1880703E+00 -0.1240078E+01 -0.6107061E-01  0.1778786E+00
  0.1523320E+02  0.1500340E+01 -0.1027320E+00  0.1903959E+00 -0.1246137E+01 -0.6073357E-01  0.1804496E+00
  0.1501280E+02  0.2986230E+01 -0.1027320E+00  0.1924583E+00 -0.1254861E+01 -0.5979780E-01  0.1829329E+00
  0.1464780E+02  0.4443360E+01 -0.1027320E+00  0.1944481E+00 -0.1266264E+01 -0.5830468E-01  0.1855011E+00
  0.1414170E+02  0.5857700E+01 -0.1027320E+00  0.1960886E+00 -0.1280977E+01 -0.5603798E-01  0.1879109E+00
  0.1349950E+02  0.7215620E+01 -0.1027320E+00  0.1976279E+00 -0.1299550E+01 -0.5295091E-01  0.1904022E+00
  0.1272720E+02  0.8504060E+01 -0.1027320E+00  0.1992277E+00 -0.1320812E+01 -0.4928663E-01  0.1930350E+00
  0.1183240E+02  0.9710600E+01 -0.1027320E+00  0.2007263E+00 -0.1345054E+01 -0.4492860E-01  0.1956335E+00
  0.1082360E+02  0.1082360E+02 -0.1027320E+00  0.2024679E+00 -0.1373932E+01 -0.3960180E-01  0.1985572E+00
  0.9710590E+01  0.1183240E+02 -0.1027320E+00  0.2043215E+00 -0.1408172E+01 -0.3308140E-01  0.2016257E+00
  0.8504060E+01  0.1272720E+02 -0.1027320E+00  0.2065229E+00 -0.1445910E+01 -0.2572486E-01  0.2049145E+00
  0.7215620E+01  0.1349950E+02 -0.1027320E+00  0.2080784E+00 -0.1488510E+01 -0.1710275E-01  0.2073743E+00
  0.5857700E+01  0.1414170E+02 -0.1027320E+00  0.2102998E+00 -0.1537964E+01 -0.6903428E-02  0.2101865E+00
  0.4443360E+01  0.1464780E+02 -0.1027320E+00  0.2144556E+00 -0.1599803E+01  0.6219775E-02  0.2143654E+00
  0.2986230E+01  0.1501280E+02 -0.1027320E+00  0.2210240E+00 -0.1684914E+01  0.2516812E-01  0.2195864E+00
  0.1500340E+01  0.1523320E+02 -0.1027320E+00  0.2273990E+00 -0.1833619E+01  0.5907992E-01  0.2195902E+00
 -0.6690860E-06  0.1530690E+02 -0.1027320E+00  0.2090565E+00 -0.1901222E+01  0.6782743E-01  0.1977474E+00
 -0.1500340E+01  0.1523320E+02 -0.1027320E+00  0.1673436E+00 -0.1955656E+01  0.6282569E-01  0.1551026E+00
 -0.2986230E+01  0.1501280E+02 -0.1027320E+00  0.6708294E-01 -0.2077367E+01  0.3254740E-01  0.5865823E-01
 -0.4443360E+01  0.1464780E+02 -0.1027320E+00  0.3614922E-01 -0.2373609E+01  0.2600260E-01  0.2511237E-01
 -0.5857700E+01  0.1414170E+02 -0.1027320E+00  0.2608507E-01 -0.2872348E+01  0.2514528E-01  0.6938722E-02
 -0.7215620E+01  0.1349950E+02 -0.1027320E+00  0.2707936E-01  0.2928468E+01  0.2646668E-01 -0.5727680E-02
 -0.8504060E+01  0.1272720E+02 -0.1027320E+00  0.3270946E-01  0.2625955E+01  0.2845653E-01 -0.1612869E-01
 -0.9710590E+01  0.1183240E+02 -0.1027320E+00  0.3900476E-01  0.2500434E+01  0.3125853E-01 -0.2332971E-01
 -0.1082360E+02  0.1082360E+02 -0.1027320E+00  0.4558630E-01  0.2414228E+01  0.3404974E-01 -0.3031049E-01
 -0.1183240E+02  0.9710590E+01 -0.1027320E+00  0.5160561E-01  0.2381069E+01  0.3738698E-01 -0.3557179E-01
 -0.1272720E+02  0.8504060E+01 -0.1027320E+00  0.5731728E-01  0.2365963E+01  0.4092343E-01 -0.4013158E-01
 -0.1349950E+02  0.7215620E+01 -0.1027320E+00  0.6288095E-01  0.2353632E+01  0.4434945E-01 -0.4457735E-01
 -0.1414170E+02  0.5857690E+01 -0.1027320E+00  0.6861778E-01  0.2336287E+01  0.4754465E-01 -0.4947633E-01
 -0.1464780E+02  0.4443360E+01 -0.1027320E+00  0.7415140E-01  0.2327443E+01  0.5090395E-01 -0.5391863E-01
 -0.1501280E+02  0.2986230E+01 -0.1027320E+00  0.7938593E-01  0.2325744E+01  0.5439927E-01 -0.5781734E-01
 -0.1523320E+02  0.1500340E+01 -0.1027320E+00  0.8418793E-01  0.2329220E+01  0.5790262E-01 -0.6111379E-01
 -0.1530690E+02 -0.1338170E-05 -0.1027320E+00  0.8852995E-01  0.2335901E+01  0.6131698E-01 -0.6385750E-01
 -0.1523320E+02 -0.1500340E+01 -0.1027320E+00  0.9256969E-01  0.2342506E+01  0.6455455E-01 -0.6634649E-01
 -0.1501280E+02 -0.2986230E+01 -0.1027320E+00  0.9633566E-01  0.2347262E+01  0.6750838E-01 -0.6872538E-01
 -0.1464780E+02 -0.4443360E+01 -0.1027320E+00  0.9991038E-01  0.2348859E+01  0.7012717E-01 -0.7116364E-01
 -0.1414170E+02 -0.5857700E+01 -0.1027320E+00  0.1033205E+00  0.2350531E+01  0.7264371E-01 -0.7347121E-01
 -0.1349950E+02 -0.7215620E+01 -0.1027320E+00  0.1068180E+00  0.2351351E+01  0.7516497E-01 -0.7589670E-01
 -0.1272720E+02 -0.8504060E+01 -0.1027320E+00  0.1103792E+00  0.2350696E+01  0.7761952E-01 -0.7847790E-01
 -0.1183240E+02 -0.9710600E+01 -0.1027320E+00  0.1138910E+00  0.2349717E+01  0.8000980E-01 -0.8105303E-01
 -0.1082360E+02 -0.1082360E+02 -0.1027320E+00  0.1177872E+00  0.2347523E+01  0.8256275E-01 -0.8400726E-01
 -0.9710600E+01 -0.1183240E+02 -0.1027320E+00  0.1219842E+00  0.2345337E+01  0.8531427E-01 -0.8718731E-01
 -0.8504050E+01 -0.1272720E+02 -0.1027320E+00  0.1265082E+00  0.2342803E+01  0.8824889E-01 -0.9064472E-01
 -0.7215620E+01 -0.1349950E+02 -0.1027320E+00  0.1304250E+00  0.2343783E+01  0.9107264E-01 -0.9336193E-01
 -0.5857690E+01 -0.1414170E+02 -0.1027320E+00  0.1351451E+00  0.2346032E+01  0.9458594E-01 -0.9652828E-01
 -0.4443360E+01 -0.1464780E+02 -0.1027320E+00  0.1421940E+00  0.2349242E+01  0.9984487E-01 -0.1012430E+00
 -0.2986230E+01 -0.1501280E+02 -0.1027320E+00  0.1523226E+00  0.2359368E+01  0.1080496E+00 -0.1073660E+00
 -0.1500340E+01 -0.1523320E+02 -0.1027320E+00  0.1612417E+00  0.2396531E+01  0.1185201E+00 -0.1093246E+00
  0.1825330E-06 -0.1530690E+02 -0.1027320E+00  0.1389673E+00  0.2455845E+01  0.1075532E+00 -0.8800130E-01
  0.1500340E+01 -0.1523320E+02 -0.1027320E+00  0.9304149E-01  0.2635307E+01  0.8136959E-01 -0.4511883E-01
  0.2986230E+01 -0.1501280E+02 -0.1027320E+00  0.5710317E-01 -0.1953898E+01  0.2134510E-01  0.5296375E-01
  0.4443360E+01 -0.1464780E+02 -0.1027320E+00  0.8726542E-01 -0.1575371E+01  0.3992393E-03  0.8726450E-01
  0.5857700E+01 -0.1414170E+02 -0.1027320E+00  0.1065033E+00 -0.1460888E+01 -0.1168202E-01  0.1058607E+00
  0.7215620E+01 -0.1349950E+02 -0.1027320E+00  0.1205656E+00 -0.1399049E+01 -0.2060513E-01  0.1187918E+00
  0.8504060E+01 -0.1272720E+02 -0.1027320E+00  0.1324643E+00 -0.1354835E+01 -0.2838529E-01  0.1293873E+00
  0.9710600E+01 -0.1183240E+02 -0.1027320E+00  0.1409759E+00 -0.1324608E+01 -0.3435709E-01  0.1367252E+00
  0.1082360E+02 -0.1082360E+02 -0.1027320E+00  0.1493073E+00 -0.1298683E+01 -0.4012901E-01  0.1438135E+00
  0.1183240E+02 -0.9710590E+01 -0.1027320E+00  0.1556957E+00 -0.1279633E+01 -0.4469506E-01  0.1491426E+00
  0.1272720E+02 -0.8504060E+01 -0.1027320E+00  0.1612533E+00 -0.1264833E+01 -0.4857140E-01  0.1537642E+00
  0.1349950E+02 -0.7215620E+01 -0.1027320E+00  0.1666326E+00 -0.1252828E+01 -0.5209564E-01  0.1582797E+00
  0.1414170E+02 -0.5857700E+01 -0.1027320E+00  0.1724299E+00 -0.1243294E+01 -0.5546703E-01  0.1632651E+00
  0.1464780E+02 -0.4443350E+01 -0.1027320E+00  0.1775357E+00 -0.1237659E+01 -0.5805594E-01  0.1677749E+00
  0.1501280E+02 -0.2986230E+01 -0.1027320E+00  0.1818290E+00 -0.1235784E+01 -0.5978187E-01  0.1717205E+00
  0.1523320E+02 -0.1500330E+01 -0.1027320E+00  0.1853182E+00 -0.1236679E+01 -0.6077236E-01  0.1750701E+00
  0.1530690E+02  0.0000000E+00 -0.2310450E+00  0.1870072E+00 -0.1240085E+01 -0.6072431E-01  0.1768736E+00
  0.1523320E+02  0.1500340E+01 -0.2310450E+00  0.1893310E+00 -0.1246149E+01 -0.6039177E-01  0.1794410E+00
  0.1501280E+02  0.2986230E+01 -0.2310450E+00  0.1913964E+00 -0.1254881E+01 -0.5946438E-01  0.1819246E+00
  0.1464780E+02  0.4443360E+01 -0.2310450E+00  0.1933874E+00 -0.1266309E+01 -0.5797839E-01  0.1844917E+00
  0.1414170E+02  0.5857700E+01 -0.2310450E+00  0.1950331E+00 -0.1281043E+01 -0.5572402E-01  0.1869030E+00
  0.1349950E+02  0.7215620E+01 -0.2310450E+00  0.1965725E+00 -0.1299607E+01 -0.5265731E-01  0.1893884E+00
  0.1272720E+02  0.8504060E+01 -0.2310450E+00  0.1981625E+00 -0.1320880E+01 -0.4901014E-01  0.1920062E+00
  0.1183240E+02  0.9710600E+01 -0.2310450E+00  0.1996487E+00 -0.1345147E+01 -0.4466924E-01  0.1945874E+00
  0.1082360E+02  0.1082360E+02 -0.2310450E+00  0.2013785E+00 -0.1374029E+01 -0.3936955E-01  0.1974926E+00
  0.9710590E+01  0.1183240E+02 -0.2310450E+00  0.2032254E+00 -0.1408231E+01 -0.3289218E-01  0.2005460E+00
  0.8504060E+01  0.1272720E+02 -0.2310450E+00  0.2053895E+00 -0.1445968E+01 -0.2557186E-01  0.2037914E+00
  0.7215620E+01  0.1349950E+02 -0.2310450E+00  0.2069742E+00 -0.1488576E+01 -0.1699823E-01  0.2062750E+00
  0.5857700E+01  0.1414170E+02 -0.2310450E+00  0.2091907E+00 -0.1538068E+01 -0.6845243E-02  0.2090786E+00
  0.4443360E+01  0.1464780E+02 -0.2310450E+00  0.2133016E+00 -0.1599834E+01  0.6192874E-02  0.2132117E+00
  0.2986230E+01  0.1501280E+02 -0.2310450E+00  0.2199125E+00 -0.1685178E+01  0.2509925E-01  0.2184755E+00
  0.1500340E+01  0.1523320E+02 -0.2310450E+00  0.2261857E+00 -0.1833618E+01  0.5876447E-01  0.2184186E+00
 -0.6690860E-06  0.1530690E+02 -0.2310450E+00  0.2080635E+00 -0.1901484E+01  0.6755686E-01  0.1967904E+00
 -0.1500340E+01  0.1523320E+02 -0.2310450E+00  0.1663511E+00 -0.1955794E+01  0.6247433E-01  0.1541740E+00
 -0.2986230E+01  0.1501280E+02 -0.2310450E+00  0.6680011E-01 -0.2077768E+01  0.3243360E-01  0.5839792E-01
 -0.4443360E+01  0.1464780E+02 -0.2310450E+00  0.3591079E-01 -0.2374732E+01  0.2585909E-01  0.2491771E-01
 -0.5857700E+01  0.1414170E+02 -0.2310450E+00  0.2594742E-01 -0.2873730E+01  0.2502210E-01  0.6867527E-02
 -0.7215620E+01  0.1349950E+02 -0.2310450E+00  0.2694376E-01  0.2926211E+01  0.2632122E-01 -0.5758435E-02
 -0.8504060E+01  0.1272720E+02 -0.2310450E+00  0.3254434E-01  0.2626107E+01  0.2831530E-01 -0.1604299E-01
 -0.9710590E+01  0.1183240E+02 -0.2310450E+00  0.3882468E-01  0.2499368E+01  0.3108947E-01 -0.2325513E-01
 -0.1082360E+02  0.1082360E+02 -0.2310450E+00  0.4536028E-01  0.2414100E+01  0.3387706E-01 -0.3016455E-01
 -0.1183240E+02  0.9710590E+01 -0.2310450E+00  0.5135090E-01  0.2380816E+01  0.3719351E-01 -0.3540561E-01
 -0.1272720E+02  0.8504060E+01 -0.2310450E+00  0.5704306E-01  0.2365298E+01  0.4070105E-01 -0.3996668E-01
 -0.1349950E+02  0.7215620E+01 -0.2310450E+00  0.6258038E-01  0.2352932E+01  0.4410641E-01 -0.4439515E-01
 -0.1414170E+02  0.5857690E+01 -0.2310450E+00  0.6827074E-01  0.2336002E+01  0.4729015E-01 -0.4923957E-01
 -0.1464780E+02  0.4443360E+01 -0.2310450E+00  0.7375675E-01  0.2327443E+01  0.5063307E-01 -0.5363161E-01
 -0.1501280E+02  0.2986230E+01 -0.2310450E+00  0.7894738E-01  0.2325883E+01  0.5410674E-01 -0.5749043E-01
 -0.1523320E+02  0.1500340E+01 -0.2310450E+00  0.8371467E-01  0.2329361E+01  0.5758571E-01 -0.6076210E-01
 -0.1530690E+02 -0.1338170E-05 -0.2310450E+00  0.8803356E-01  0.2335956E+01  0.6097661E-01 -0.6349614E-01
 -0.1523320E+02 -0.1500340E+01 -0.2310450E+00  0.9205682E-01  0.2342456E+01  0.6419359E-01 -0.6598212E-01
 -0.1501280E+02 -0.2986230E+01 -0.2310450E+00  0.9581367E-01  0.2347131E+01  0.6713367E-01 -0.6836175E-01
 -0.1464780E+02 -0.4443360E+01 -0.2310450E+00  0.9938220E-01  0.2348688E+01  0.6974436E-01 -0.7079933E-01
 -0.1414170E+02 -0.5857700E+01 -0.2310450E+00  0.1027894E+00  0.2350316E+01  0.7225457E-01 -0.7310911E-01
 -0.1349950E+02 -0.7215620E+01 -0.2310450E+00  0.1062755E+00  0.2351115E+01  0.7476550E-01 -0.7552885E-01
 -0.1272720E+02 -0.8504060E+01 -0.2310450E+00  0.1098186E+00  0.2350487E+01  0.7720900E-01 -0.7809539E-01
 -0.1183240E+02 -0.9710600E+01 -0.2310450E+00  0.1133097E+00  0.2349541E+01  0.7958727E-01 -0.8065336E-01
 -0.1082360E+02 -0.1082360E+02 -0.2310450E+00  0.1171834E+00  0.2347365E+01  0.8212638E-01 -0.8358958E-01
 -0.9710600E+01 -0.1183240E+02 -0.2310450E+00  0.1213572E+00  0.2345171E+01  0.8486138E-01 -0.8675320E-01
 -0.8504050E+01 -0.1272720E+02 -0.2310450E+00  0.1258320E+00  0.2342723E+01  0.8776998E-01 -0.9016725E-01
 -0.7215620E+01 -0.1349950E+02 -0.2310450E+00  0.1297664E+00  0.2343611E+01  0.9059680E-01 -0.9290609E-01
 -0.5857690E+01 -0.1414170E+02 -0.2310450E+00  0.1344714E+00  0.2345861E+01  0.9409805E-01 -0.9606308E-01
 -0.4443360E+01 -0.1464780E+02 -0.2310450E+00  0.1414544E+00  0.2349121E+01  0.9931333E-01 -0.1007284E+00
 -0.2986230E+01 -0.1501280E+02 -0.2310450E+00  0.1516214E+00  0.2359171E+01  0.1075311E+00 -0.1068930E+00
 -0.1500340E+01 -0.1523320E+02 -0.2310450E+00  0.1604116E+00  0.2396406E+01  0.1178963E+00 -0.1087765E+00
  0.1825330E-06 -0.1530690E+02 -0.2310450E+00  0.1383835E+00  0.2455481E+01  0.1070694E+00 -0.8767062E-01
  0.1500340E+01 -0.1523320E+02 -0.2310450E+00  0.9247361E-01  0.2635690E+01  0.8089012E-01 -0.4481247E-01
  0.2986230E+01 -0.1501280E+02 -0.2310450E+00  0.5673568E-01 -0.1955427E+01  0.2128818E-01  0.5259040E-01
  0.4443360E+01 -0.1464780E+02 -0.2310450E+00  0.8682527E-01 -0.1575157E+01  0.3786520E-03  0.8682444E-01
  0.5857700E+01 -0.1414170E+02 -0.2310450E+00  0.1059331E+00 -0.1460908E+01 -0.1161744E-01  0.1052941E+00
  0.7215620E+01 -0.1349950E+02 -0.2310450E+00  0.1199505E+00 -0.1398952E+01 -0.2051151E-01  0.1181838E+00
  0.8504060E+01 -0.1272720E+02 -0.2310450E+00  0.1317189E+00 -0.1354936E+01 -0.2821256E-01  0.1286620E+00
  0.9710600E+01 -0.1183240E+02 -0.2310450E+00  0.1402395E+00 -0.1324592E+01 -0.3417985E-01  0.1360105E+00
  0.1082360E+02 -0.1082360E+02 -0.2310450E+00  0.1484875E+00 -0.1298746E+01 -0.3989955E-01  0.1430264E+00
  0.1183240E+02 -0.9710590E+01 -0.2310450E+00  0.1548511E+00 -0.1279677E+01 -0.4444610E-01  0.1483355E+00
  0.1272720E+02 -0.8504060E+01 -0.2310450E+00  0.1604074E+00 -0.1264840E+01 -0.4831553E-01  0.1529580E+00
  0.1349950E+02 -0.7215620E+01 -0.2310450E+00  0.1657647E+00 -0.1252836E+01 -0.5182296E-01  0.1574558E+00
  0.1414170E+02 -0.5857700E+01 -0.2310450E+00  0.1714994E+00 -0.1243337E+01 -0.5516076E-01  0.1623864E+00
  0.1464780E+02 -0.4443350E+01 -0.2310450E+00  0.1765485E+00 -0.1237709E+01 -0.5772467E-01  0.1668450E+00
  0.1501280E+02 -0.2986230E+01 -0.2310450E+00  0.1808004E+00 -0.1235811E+01 -0.5943916E-01  0.1707506E+00
  0.1523320E+02 -0.1500330E+01 -0.2310450E+00  0.1842643E+00 -0.1236696E+01 -0.6042390E-01  0.1740755E+00
  0.1530690E+02  0.0000000E+00 -0.4105000E+00  0.1855258E+00 -0.1240097E+01 -0.6024100E-01  0.1754732E+00
  0.1523320E+02  0.1500340E+01 -0.4105000E+00  0.1878482E+00 -0.1246157E+01 -0.5991730E-01  0.1780361E+00
  0.1501280E+02  0.2986230E+01 -0.4105000E+00  0.1899167E+00 -0.1254909E+01 -0.5899947E-01  0.1805198E+00
  0.1464780E+02  0.4443360E+01 -0.4105000E+00  0.1919088E+00 -0.1266375E+01 -0.5752289E-01  0.1830849E+00
  0.1414170E+02  0.5857700E+01 -0.4105000E+00  0.1935622E+00 -0.1281130E+01 -0.5528760E-01  0.1854982E+00
  0.1349950E+02  0.7215620E+01 -0.4105000E+00  0.1951023E+00 -0.1299680E+01 -0.5224976E-01  0.1879758E+00
  0.1272720E+02  0.8504060E+01 -0.4105000E+00  0.1966782E+00 -0.1320972E+01 -0.4862549E-01  0.1905725E+00
  0.1183240E+02  0.9710600E+01 -0.4105000E+00  0.1981464E+00 -0.1345275E+01 -0.4430846E-01  0.1931289E+00
  0.1082360E+02  0.1082360E+02 -0.4105000E+00  0.1998589E+00 -0.1374159E+01 -0.3904703E-01  0.1960074E+00
  0.9710590E+01  0.1183240E+02 -0.4105000E+00  0.2016942E+00 -0.1408293E+01 -0.3263186E-01  0.1990370E+00
  0.8504060E+01  0.1272720E+02 -0.4105000E+00  0.2038063E+00 -0.1446036E+01 -0.2536110E-01  0.2022222E+00
  0.7215620E+01  0.1349950E+02 -0.4105000E+00  0.2054232E+00 -0.1488664E+01 -0.1685297E-01  0.2047307E+00
  0.5857700E+01  0.1414170E+02 -0.4105000E+00  0.2076366E+00 -0.1538202E+01 -0.6766552E-02  0.2075263E+00
  0.4443360E+01  0.1464780E+02 -0.4105000E+00  0.2116904E+00 -0.1599873E+01  0.6154375E-02  0.2116010E+00
  0.2986230E+01  0.1501280E+02 -0.4105000E+00  0.2183649E+00 -0.1685515E+01  0.2499568E-01  0.2169296E+00
  0.1500340E+01  0.1523320E+02 -0.4105000E+00  0.2245193E+00 -0.1833689E+01  0.5834700E-01  0.2168053E+00
 -0.6690860E-06  0.1530690E+02 -0.4105000E+00  0.2065746E+00 -0.1901707E+01  0.6711695E-01  0.1953673E+00
 -0.1500340E+01  0.1523320E+02 -0.4105000E+00  0.1650375E+00 -0.1955998E+01  0.6201219E-01  0.1529440E+00
 -0.2986230E+01  0.1501280E+02 -0.4105000E+00  0.6637863E-01 -0.2078354E+01  0.3226294E-01  0.5801056E-01
 -0.4443360E+01  0.1464780E+02 -0.4105000E+00  0.3558636E-01 -0.2376118E+01  0.2565969E-01  0.2465704E-01
 -0.5857700E+01  0.1414170E+02 -0.4105000E+00  0.2575822E-01 -0.2875301E+01  0.2485033E-01  0.6778424E-02
 -0.7215620E+01  0.1349950E+02 -0.4105000E+00  0.2675604E-01  0.2923949E+01  0.2612484E-01 -0.5777427E-02
 -0.8504060E+01  0.1272720E+02 -0.4105000E+00  0.3230939E-01  0.2626531E+01  0.2811765E-01 -0.1591522E-01
 -0.9710590E+01  0.1183240E+02 -0.4105000E+00  0.3856830E-01  0.2498083E+01  0.3085444E-01 -0.2314124E-01
 -0.1082360E+02  0.1082360E+02 -0.4105000E+00  0.4504107E-01  0.2414063E+01  0.3363756E-01 -0.2995351E-01