VARIABLES="w (rad/s)"
"abs(F   1   1)" "angle(F   1   1)"
Zone t="FKforce - beta =   0.000",I=     5,F=POINT
  0.5236000E+00  0.7645262E+07 -0.1570794E+01
  0.5890500E+00  0.8833191E+07 -0.1570783E+01
  0.6545000E+00  0.1009615E+08 -0.1570786E+01
  0.7199500E+00  0.1141033E+08 -0.1570784E+01
  0.7854000E+00  0.1273659E+08 -0.1570803E+01
Zone t="FKforce - beta =   9.000",I=     5,F=POINT
  0.5236000E+00  0.7544827E+07 -0.1570800E+01
  0.5890500E+00  0.8713676E+07 -0.1570799E+01
  0.6545000E+00  0.9954153E+07 -0.1570792E+01
  0.7199500E+00  0.1124131E+08 -0.1570798E+01
  0.7854000E+00  0.1253512E+08 -0.1570794E+01
Zone t="FKforce - beta =  18.000",I=     5,F=POINT
  0.5236000E+00  0.7247323E+07 -0.1570793E+01
  0.5890500E+00  0.8360589E+07 -0.1570789E+01
  0.6545000E+00  0.9535524E+07 -0.1570796E+01
  0.7199500E+00  0.1074479E+08 -0.1570798E+01
  0.7854000E+00  0.1194605E+08 -0.1570798E+01
Zone t="FKforce - beta =  27.000",I=     5,F=POINT
  0.5236000E+00  0.6763988E+07 -0.1570797E+01
  0.5890500E+00  0.7789153E+07 -0.1570796E+01
  0.6545000E+00  0.8861544E+07 -0.1570794E+01
  0.7199500E+00  0.9950846E+07 -0.1570797E+01
  0.7854000E+00  0.1101199E+08 -0.1570795E+01
Zone t="FKforce - beta =  36.000",I=     5,F=POINT
  0.5236000E+00  0.6112188E+07 -0.1570793E+01
  0.5890500E+00  0.7022768E+07 -0.1570795E+01
  0.6545000E+00  0.7964300E+07 -0.1570801E+01
  0.7199500E+00  0.8904000E+07 -0.1570791E+01
  0.7854000E+00  0.9795125E+07 -0.1570793E+01
Zone t="FKforce - beta =  45.000",I=     5,F=POINT
  0.5236000E+00  0.5313860E+07 -0.1570791E+01
  0.5890500E+00  0.6090240E+07 -0.1570804E+01
  0.6545000E+00  0.6882270E+07 -0.1570801E+01
  0.7199500E+00  0.7656396E+07 -0.1570801E+01
  0.7854000E+00  0.8366470E+07 -0.1570796E+01
Zone t="FKforce - beta =  54.000",I=     5,F=POINT
  0.5236000E+00  0.4393642E+07 -0.1570795E+01
  0.5890500E+00  0.5022912E+07 -0.1570796E+01
  0.6545000E+00  0.5655854E+07 -0.1570798E+01
  0.7199500E+00  0.6260664E+07 -0.1570795E+01
  0.7854000E+00  0.6794846E+07 -0.1570798E+01
Zone t="FKforce - beta =  63.000",I=     5,F=POINT
  0.5236000E+00  0.3377193E+07 -0.1570794E+01
  0.5890500E+00  0.3852072E+07 -0.1570794E+01
  0.6545000E+00  0.4323378E+07 -0.1570794E+01
  0.7199500E+00  0.4763914E+07 -0.1570796E+01
  0.7854000E+00  0.5138190E+07 -0.1570794E+01
Zone t="FKforce - beta =  72.000",I=     5,F=POINT
  0.5236000E+00  0.2289945E+07 -0.1570806E+01
  0.5890500E+00  0.2607190E+07 -0.1570799E+01
  0.6545000E+00  0.2918579E+07 -0.1570793E+01
  0.7199500E+00  0.3204235E+07 -0.1570797E+01
  0.7854000E+00  0.3438629E+07 -0.1570799E+01
Zone t="FKforce - beta =  81.000",I=     5,F=POINT
  0.5236000E+00  0.1156388E+07 -0.1570799E+01
  0.5890500E+00  0.1315047E+07 -0.1570780E+01
  0.6545000E+00  0.1469642E+07 -0.1570773E+01
  0.7199500E+00  0.1609676E+07 -0.1570782E+01
  0.7854000E+00  0.1721791E+07 -0.1570785E+01
Zone t="FKforce - beta =  90.000",I=     5,F=POINT
  0.5236000E+00  0.4941702E+02 -0.1096772E-02
  0.5890500E+00  0.2463478E+02  0.3140621E+01
  0.6545000E+00  0.6073358E+01  0.3060141E+01
  0.7199500E+00  0.1369988E+01 -0.2118650E+00
  0.7854000E+00  0.3486609E+01  0.4621492E-02
Zone t="FKforce - beta =  99.000",I=     5,F=POINT
  0.5236000E+00  0.1156388E+07  0.1570796E+01
  0.5890500E+00  0.1315047E+07  0.1570791E+01
  0.6545000E+00  0.1469641E+07  0.1570777E+01
  0.7199500E+00  0.1609676E+07  0.1570776E+01
  0.7854000E+00  0.1721788E+07  0.1570789E+01
Zone t="FKforce - beta = 108.000",I=     5,F=POINT
  0.5236000E+00  0.2289948E+07  0.1570808E+01
  0.5890500E+00  0.2607192E+07  0.1570798E+01
  0.6545000E+00  0.2918579E+07  0.1570795E+01
  0.7199500E+00  0.3204239E+07  0.1570795E+01
  0.7854000E+00  0.3438631E+07  0.1570799E+01
Zone t="FKforce - beta = 117.000",I=     5,F=POINT
  0.5236000E+00  0.3377193E+07  0.1570795E+01
  0.5890500E+00  0.3852074E+07  0.1570794E+01
  0.6545000E+00  0.4323380E+07  0.1570791E+01
  0.7199500E+00  0.4763914E+07  0.1570794E+01
  0.7854000E+00  0.5138190E+07  0.1570794E+01
Zone t="FKforce - beta = 126.000",I=     5,F=POINT
  0.5236000E+00  0.4393638E+07  0.1570793E+01
  0.5890500E+00  0.5022913E+07  0.1570794E+01
  0.6545000E+00  0.5655853E+07  0.1570800E+01
  0.7199500E+00  0.6260665E+07  0.1570795E+01
  0.7854000E+00  0.6794848E+07  0.1570797E+01
Zone t="FKforce - beta = 135.000",I=     5,F=POINT
  0.5236000E+00  0.5313860E+07  0.1570791E+01
  0.5890500E+00  0.6090241E+07  0.1570804E+01
  0.6545000E+00  0.6882270E+07  0.1570803E+01
  0.7199500E+00  0.7656396E+07  0.1570801E+01
  0.7854000E+00  0.8366470E+07  0.1570795E+01
Zone t="FKforce - beta = 144.000",I=     5,F=POINT
  0.5236000E+00  0.6112188E+07  0.1570792E+01
  0.5890500E+00  0.7022770E+07  0.1570798E+01
  0.6545000E+00  0.7964302E+07  0.1570801E+01
  0.7199500E+00  0.8904002E+07  0.1570792E+01
  0.7854000E+00  0.9795125E+07  0.1570795E+01
Zone t="FKforce - beta = 153.000",I=     5,F=POINT
  0.5236000E+00  0.6763986E+07  0.1570796E+01
  0.5890500E+00  0.7789152E+07  0.1570794E+01
  0.6545000E+00  0.8861547E+07  0.1570795E+01
  0.7199500E+00  0.9950841E+07  0.1570798E+01
  0.7854000E+00  0.1101199E+08  0.1570795E+01
Zone t="FKforce - beta = 162.000",I=     5,F=POINT
  0.5236000E+00  0.7247323E+07  0.1570794E+01
  0.5890500E+00  0.8360586E+07  0.1570791E+01
  0.6545000E+00  0.9535526E+07  0.1570797E+01
  0.7199500E+00  0.1074480E+08  0.1570798E+01
  0.7854000E+00  0.1194605E+08  0.1570798E+01
Zone t="FKforce - beta = 171.000",I=     5,F=POINT
  0.5236000E+00  0.7544826E+07  0.1570799E+01
  0.5890500E+00  0.8713678E+07  0.1570797E+01
  0.6545000E+00  0.9954154E+07  0.1570791E+01
  0.7199500E+00  0.1124130E+08  0.1570797E+01
  0.7854000E+00  0.1253512E+08  0.1570794E+01
Zone t="FKforce - beta = 180.000",I=     5,F=POINT
  0.5236000E+00  0.7645262E+07  0.1570794E+01
  0.5890500E+00  0.8833184E+07  0.1570783E+01
  0.6545000E+00  0.1009615E+08  0.1570786E+01
  0.7199500E+00  0.1141033E+08  0.1570784E+01
  0.7854000E+00  0.1273660E+08  0.1570803E+01
Zone t="FKforce - beta = 189.000",I=     5,F=POINT
  0.5236000E+00  0.7544826E+07  0.1570800E+01
  0.5890500E+00  0.8713676E+07  0.1570799E+01
  0.6545000E+00  0.9954154E+07  0.1570792E+01
  0.7199500E+00  0.1124130E+08  0.1570798E+01
  0.7854000E+00  0.1253512E+08  0.1570794E+01
Zone t="FKforce - beta = 198.000",I=     5,F=POINT
  0.5236000E+00  0.7247324E+07  0.1570793E+01
  0.5890500E+00  0.8360589E+07  0.1570789E+01
  0.6545000E+00  0.9535523E+07  0.1570796E+01
  0.7199500E+00  0.1074479E+08  0.1570798E+01
  0.7854000E+00  0.1194605E+08  0.1570798E+01
Zone t="FKforce - beta = 207.000",I=     5,F=POINT
  0.5236000E+00  0.6763990E+07  0.1570797E+01
  0.5890500E+00  0.7789153E+07  0.1570796E+01
  0.6545000E+00  0.8861542E+07  0.1570794E+01
  0.7199500E+00  0.9950846E+07  0.1570797E+01
  0.7854000E+00  0.1101199E+08  0.1570795E+01
Zone t="FKforce - beta = 216.000",I=     5,F=POINT
  0.5236000E+00  0.6112188E+07  0.1570793E+01
  0.5890500E+00  0.7022770E+07  0.1570795E+01
  0.6545000E+00  0.7964301E+07  0.1570801E+01
  0.7199500E+00  0.8904000E+07  0.1570791E+01
  0.7854000E+00  0.9795128E+07  0.1570793E+01
Zone t="FKforce - beta = 225.000",I=     5,F=POINT
  0.5236000E+00  0.5313860E+07  0.1570791E+01
  0.5890500E+00  0.6090241E+07  0.1570804E+01
  0.6545000E+00  0.6882268E+07  0.1570801E+01
  0.7199500E+00  0.7656396E+07  0.1570801E+01
  0.7854000E+00  0.8366470E+07  0.1570796E+01
Zone t="FKforce - beta = 234.000",I=     5,F=POINT
  0.5236000E+00  0.4393640E+07  0.1570793E+01
  0.5890500E+00  0.5022910E+07  0.1570795E+01
  0.6545000E+00  0.5655852E+07  0.1570798E+01
  0.7199500E+00  0.6260662E+07  0.1570795E+01
  0.7854000E+00  0.6794844E+07  0.1570797E+01
Zone t="FKforce - beta = 243.000",I=     5,F=POINT
  0.5236000E+00  0.3377190E+07  0.1570794E+01
  0.5890500E+00  0.3852070E+07  0.1570794E+01
  0.6545000E+00  0.4323376E+07  0.1570793E+01
  0.7199500E+00  0.4763910E+07  0.1570796E+01
  0.7854000E+00  0.5138188E+07  0.1570794E+01
Zone t="FKforce - beta = 252.000",I=     5,F=POINT
  0.5236000E+00  0.2289943E+07  0.1570806E+01
  0.5890500E+00  0.2607188E+07  0.1570798E+01
  0.6545000E+00  0.2918576E+07  0.1570793E+01
  0.7199500E+00  0.3204234E+07  0.1570797E+01
  0.7854000E+00  0.3438628E+07  0.1570801E+01
Zone t="FKforce - beta = 261.000",I=     5,F=POINT
  0.5236000E+00  0.1156388E+07  0.1570797E+01
  0.5890500E+00  0.1315047E+07  0.1570780E+01
  0.6545000E+00  0.1469642E+07  0.1570771E+01
  0.7199500E+00  0.1609676E+07  0.1570785E+01
  0.7854000E+00  0.1721791E+07  0.1570785E+01
Zone t="FKforce - beta = 270.000",I=     5,F=POINT
  0.5236000E+00  0.4941702E+02  0.1096772E-02
  0.5890500E+00  0.2463478E+02 -0.3140621E+01
  0.6545000E+00  0.6068593E+01 -0.3070405E+01
  0.7199500E+00  0.1369988E+01  0.2118650E+00
  0.7854000E+00  0.3486609E+01 -0.4621492E-02
Zone t="FKforce - beta = 279.000",I=     5,F=POINT
  0.5236000E+00  0.1156389E+07 -0.1570793E+01
  0.5890500E+00  0.1315048E+07 -0.1570790E+01
  0.6545000E+00  0.1469641E+07 -0.1570777E+01
  0.7199500E+00  0.1609676E+07 -0.1570776E+01
  0.7854000E+00  0.1721789E+07 -0.1570790E+01
Zone t="FKforce - beta = 288.000",I=     5,F=POINT
  0.5236000E+00  0.2289948E+07 -0.1570808E+01
  0.5890500E+00  0.2607192E+07 -0.1570798E+01
  0.6545000E+00  0.2918580E+07 -0.1570795E+01
  0.7199500E+00  0.3204240E+07 -0.1570795E+01
  0.7854000E+00  0.3438633E+07 -0.1570799E+01
Zone t="FKforce - beta = 297.000",I=     5,F=POINT
  0.5236000E+00  0.3377194E+07 -0.1570795E+01
  0.5890500E+00  0.3852075E+07 -0.1570794E+01
  0.6545000E+00  0.4323380E+07 -0.1570791E+01
  0.7199500E+00  0.4763916E+07 -0.1570793E+01
  0.7854000E+00  0.5138190E+07 -0.1570794E+01
Zone t="FKforce - beta = 306.000",I=     5,F=POINT
  0.5236000E+00  0.4393638E+07 -0.1570793E+01
  0.5890500E+00  0.5022913E+07 -0.1570794E+01
  0.6545000E+00  0.5655853E+07 -0.1570800E+01
  0.7199500E+00  0.6260664E+07 -0.1570795E+01
  0.7854000E+00  0.6794848E+07 -0.1570797E+01
Zone t="FKforce - beta = 315.000",I=     5,F=POINT
  0.5236000E+00  0.5313860E+07 -0.1570791E+01
  0.5890500E+00  0.6090241E+07 -0.1570804E+01
  0.6545000E+00  0.6882269E+07 -0.1570803E+01
  0.7199500E+00  0.7656394E+07 -0.1570802E+01
  0.7854000E+00  0.8366469E+07 -0.1570795E+01
Zone t="FKforce - beta = 324.000",I=     5,F=POINT
  0.5236000E+00  0.6112187E+07 -0.1570792E+01
  0.5890500E+00  0.7022770E+07 -0.1570798E+01
  0.6545000E+00  0.7964300E+07 -0.1570801E+01
  0.7199500E+00  0.8904001E+07 -0.1570792E+01
  0.7854000E+00  0.9795126E+07 -0.1570795E+01
Zone t="FKforce - beta = 333.000",I=     5,F=POINT
  0.5236000E+00  0.6763989E+07 -0.1570796E+01
  0.5890500E+00  0.7789151E+07 -0.1570794E+01
  0.6545000E+00  0.8861547E+07 -0.1570795E+01
  0.7199500E+00  0.9950844E+07 -0.1570798E+01
  0.7854000E+00  0.1101199E+08 -0.1570795E+01
Zone t="FKforce - beta = 342.000",I=     5,F=POINT
  0.5236000E+00  0.7247324E+07 -0.1570794E+01
  0.5890500E+00  0.8360588E+07 -0.1570791E+01
  0.6545000E+00  0.9535526E+07 -0.1570797E+01
  0.7199500E+00  0.1074480E+08 -0.1570798E+01
  0.7854000E+00  0.1194606E+08 -0.1570798E+01
Zone t="FKforce - beta = 351.000",I=     5,F=POINT
  0.5236000E+00  0.7544828E+07 -0.1570799E+01
  0.5890500E+00  0.8713682E+07 -0.1570797E+01
  0.6545000E+00  0.9954155E+07 -0.1570791E+01
  0.7199500E+00  0.1124130E+08 -0.1570797E+01
  0.7854000E+00  0.1253512E+08 -0.1570795E+01
