VARIABLES="w (rad/s)"
"A   1   1" "B   1   1"
Zone t="Motion of body    1 in DoF   1",I=     5,F=POINT
  0.5236000E+00  0.1943120E+10  0.7553186E+08
  0.5890500E+00  0.2103372E+10  0.1609147E+09
  0.6545000E+00  0.2272883E+10  0.3350550E+09
  0.7199500E+00  0.2371177E+10  0.6480448E+09
  0.7854000E+00  0.2263487E+10  0.1101940E+10
