VARIABLES="w (rad/s)"
"abs(F   1   1)" "angle(F   1   1)"
"abs(F   1   2)" "angle(F   1   2)"
"abs(F   1   3)" "angle(F   1   3)"
"abs(F   1   4)" "angle(F   1   4)"
"abs(F   1   5)" "angle(F   1   5)"
"abs(F   1   6)" "angle(F   1   6)"
Zone t="Diffraction force - beta =   0.000 deg",I=    24,F=POINT
  0.5000000E+00  0.1582088E+06 -0.1558524E+01  0.2584373E-01  0.1648664E+01  0.5105960E+05 -0.2948829E+01  0.1184352E+00  0.3800201E+00  0.2826781E+06  0.1582909E+01  0.1925684E-02  0.5041909E+00
  0.5434783E+00  0.1789374E+06 -0.1553127E+01  0.1388783E-01  0.2121956E+01  0.5822183E+05 -0.2932477E+01  0.1333715E+00  0.4912795E-01  0.3146997E+06  0.1588257E+01  0.2295531E-02  0.5434678E+00
  0.5869565E+00  0.2016445E+06 -0.1545653E+01  0.1867770E-01  0.1946211E+01  0.6522995E+05 -0.2918226E+01  0.1679597E+00  0.4665241E+00  0.3491225E+06  0.1595619E+01  0.2693372E-02  0.5839697E+00
  0.6304348E+00  0.2265709E+06 -0.1535134E+01  0.1841046E-01  0.1698730E+01  0.7161662E+05 -0.2898407E+01  0.1767881E+00  0.4275371E+00  0.3862547E+06  0.1605973E+01  0.3125048E-02  0.6286138E+00
  0.6739131E+00  0.2539668E+06 -0.1521312E+01  0.3029076E-01  0.1854216E+01  0.7731616E+05 -0.2881866E+01  0.2267380E+00  0.6453990E+00  0.4240605E+06  0.1619608E+01  0.3574732E-02  0.6726977E+00
  0.7173913E+00  0.2832989E+06 -0.1503203E+01  0.5998898E-01  0.1699219E+01  0.8217016E+05 -0.2863912E+01  0.1956448E+00  0.4012758E+00  0.4623012E+06  0.1637515E+01  0.4039350E-02  0.7172326E+00
  0.7608696E+00  0.3141395E+06 -0.1480218E+01  0.9776028E-01  0.1705533E+01  0.8596866E+05 -0.2844350E+01  0.2642584E+00  0.8964491E+00  0.5011762E+06  0.1660172E+01  0.4524507E-02  0.7599677E+00
  0.8043478E+00  0.3456894E+06 -0.1452457E+01  0.8858553E-01  0.1909995E+01  0.8911866E+05 -0.2829119E+01  0.2298016E+00  0.6129107E+00  0.5391092E+06  0.1687338E+01  0.5004829E-02  0.7977346E+00
  0.8478261E+00  0.3777798E+06 -0.1419139E+01  0.9788113E-01  0.1933182E+01  0.9067400E+05 -0.2810556E+01  0.2264647E+00  0.4254953E+00  0.5721280E+06  0.1720232E+01  0.5484911E-02  0.8358535E+00
  0.8913044E+00  0.4092601E+06 -0.1380459E+01  0.1033297E+00  0.1989761E+01  0.9156726E+05 -0.2794289E+01  0.2098599E+00  0.4694667E+00  0.6002632E+06  0.1758474E+01  0.5975135E-02  0.8715675E+00
  0.9347826E+00  0.4387685E+06 -0.1336381E+01  0.1610179E+00  0.1732901E+01  0.9193626E+05 -0.2780661E+01  0.2693831E+00  0.8027312E+00  0.6225654E+06  0.1801856E+01  0.6453258E-02  0.9027079E+00
  0.9782609E+00  0.4650083E+06 -0.1286528E+01  0.1128636E+00  0.2098238E-01  0.9068141E+05 -0.2765092E+01  0.2738933E+00 -0.4354371E-02  0.6376668E+06  0.1850682E+01  0.6923356E-02  0.9339016E+00
  0.1021739E+01  0.4872091E+06 -0.1231998E+01  0.1843349E+00 -0.8656189E+00  0.8890066E+05 -0.2750348E+01  0.2659430E+00 -0.9145505E-01  0.6440759E+06  0.1903830E+01  0.7385310E-02  0.9624752E+00
  0.1065217E+01  0.5042809E+06 -0.1173860E+01  0.7119572E-01  0.1821381E+01  0.8674825E+05 -0.2737524E+01  0.2955022E-01 -0.2060638E+01  0.6388666E+06  0.1960615E+01  0.7820589E-02  0.9888574E+00
  0.1108696E+01  0.5149677E+06 -0.1112352E+01  0.2909827E+00  0.1527685E+01  0.8367464E+05 -0.2725713E+01  0.3461826E+00  0.1836582E+01  0.6225608E+06  0.2020597E+01  0.8232073E-02  0.1013164E+01
  0.1152174E+01  0.5185003E+06 -0.1048383E+01  0.1684842E+00  0.1173216E+01  0.7985935E+05 -0.2712969E+01  0.2215625E+00  0.1538928E+01  0.5968408E+06  0.2082428E+01  0.8622770E-02  0.1038080E+01
  0.1195652E+01  0.5149214E+06 -0.9840584E+00  0.1099349E+00  0.5398047E+00  0.7583858E+05 -0.2701524E+01  0.1501366E+00  0.1519115E+01  0.5610917E+06  0.2144418E+01  0.8978832E-02  0.1060468E+01
  0.1239130E+01  0.5040215E+06 -0.9200687E+00  0.1214833E+00 -0.2394088E-01  0.7172181E+05 -0.2691371E+01  0.1705629E+00  0.1522594E+01  0.5170097E+06  0.2205590E+01  0.9308429E-02  0.1081413E+01
  0.1282609E+01  0.4863698E+06 -0.8572641E+00  0.1538727E+00  0.3248213E+00  0.6701596E+05 -0.2683113E+01  0.1863848E+00  0.1652976E+01  0.4668470E+06  0.2264824E+01  0.9595241E-02  0.1100559E+01
  0.1326087E+01  0.4627069E+06 -0.7969976E+00  0.8635027E-01  0.3331634E+00  0.6212589E+05 -0.2675217E+01  0.1390848E+00  0.2112013E+01  0.4130257E+06  0.2320684E+01  0.9842697E-02  0.1119248E+01
  0.1369565E+01  0.4343393E+06 -0.7398640E+00  0.1015310E+00  0.6470986E+00  0.5726121E+05 -0.2668523E+01  0.1905696E+00  0.2467923E+01  0.3576230E+06  0.2372675E+01  0.1004259E-01  0.1136225E+01
  0.1413043E+01  0.4018553E+06 -0.6859543E+00  0.1017487E+00  0.7287744E-01  0.5245887E+05 -0.2660914E+01  0.1158271E+00  0.2082652E+01  0.3027024E+06  0.2419706E+01  0.1021917E-01  0.1151657E+01
  0.1456522E+01  0.3664826E+06 -0.6359602E+00  0.1128942E+00 -0.1340576E+00  0.4767821E+05 -0.2653672E+01  0.1003229E+00  0.2414420E+01  0.2495737E+06  0.2460386E+01  0.1033186E-01  0.1167259E+01
  0.1500000E+01  0.3292555E+06 -0.5896920E+00  0.1890350E+00 -0.7693731E+00  0.4298343E+05 -0.2649488E+01  0.1230024E+00  0.2262375E+01  0.2002197E+06  0.2494412E+01  0.1041117E-01  0.1180025E+01
