VARIABLES="w (rad/s)"
"abs(F   1   1)" "angle(F   1   1)"
"abs(F   1   2)" "angle(F   1   2)"
"abs(F   1   3)" "angle(F   1   3)"
"abs(F   1   4)" "angle(F   1   4)"
"abs(F   1   5)" "angle(F   1   5)"
"abs(F   1   6)" "angle(F   1   6)"
Zone t="Diffraction force - beta =   0.000 deg",I=    24,F=POINT
  0.5000000E+00  0.3521490E+06 -0.1565283E+01  0.2238735E+00  0.3028924E+01  0.5498592E+06 -0.1779021E-01  0.3751740E+00  0.3060860E+01  0.6214767E+06  0.1576306E+01  0.5221897E-01  0.3123782E+01
  0.5434783E+00  0.3946047E+06 -0.1562784E+01  0.1973522E-01  0.5444305E+00  0.5151682E+06 -0.2346353E-01  0.1094344E+00 -0.2221698E+00  0.6859115E+06  0.1578807E+01  0.5068581E-01  0.3118181E+01
  0.5869565E+00  0.4403182E+06 -0.1559283E+01  0.4466384E-01  0.2589242E+01  0.4795432E+06 -0.3013603E-01  0.7368348E-01  0.1667858E+01  0.7532036E+06  0.1582301E+01  0.4905477E-01  0.3111331E+01
  0.6304348E+00  0.4894634E+06 -0.1554291E+01  0.1420165E+00  0.3115138E+01  0.4439364E+06 -0.3885539E-01  0.5499918E-01  0.2917158E+01  0.8232735E+06  0.1587297E+01  0.4738830E-01  0.3102807E+01
  0.6739131E+00  0.5420845E+06 -0.1547620E+01  0.8037903E-01  0.4319544E+00  0.4086270E+06 -0.4861127E-01  0.3570294E+00  0.4734273E+00  0.8934745E+06  0.1593956E+01  0.4563726E-01  0.3092789E+01
  0.7173913E+00  0.5973006E+06 -0.1538756E+01  0.6325106E-01  0.1844262E+01  0.3741901E+06 -0.6023297E-01  0.1755773E+00  0.2956144E+01  0.9627400E+06  0.1602816E+01  0.4387868E-01  0.3081086E+01
  0.7608696E+00  0.6542267E+06 -0.1527349E+01  0.2281578E+00  0.2650811E+01  0.3411213E+06 -0.7387939E-01  0.2955346E+00  0.2327354E+01  0.1030318E+07  0.1614227E+01  0.4208164E-01  0.3067439E+01
  0.8043478E+00  0.7115556E+06 -0.1513407E+01  0.9577779E-01  0.2109127E+01  0.3090747E+06 -0.8875614E-01  0.1679248E+00  0.1184659E+01  0.1093660E+07  0.1628146E+01  0.4028137E-01  0.3052538E+01
  0.8478261E+00  0.7685723E+06 -0.1496468E+01  0.1828856E+00  0.3904705E+00  0.2793424E+06 -0.1056988E+00  0.2978246E+00  0.4148615E+00  0.1147836E+07  0.1645072E+01  0.3848748E-01  0.3035723E+01
  0.8913044E+00  0.8236011E+06 -0.1476646E+01  0.2361442E+00  0.2861508E+01  0.2510071E+06 -0.1244857E+00  0.2501092E+00  0.1778614E-01  0.1192057E+07  0.1664887E+01  0.3668807E-01  0.3016668E+01
  0.9347826E+00  0.8747729E+06 -0.1454027E+01  0.1267813E+00  0.1898156E+01  0.2240409E+06 -0.1454272E+00  0.2639444E+00  0.7723026E+00  0.1224696E+07  0.1687476E+01  0.3489974E-01  0.2995954E+01
  0.9782609E+00  0.9202803E+06 -0.1428606E+01  0.7892779E-01  0.4357502E+00  0.1996998E+06 -0.1677397E+00  0.9729879E-01 -0.6620241E-01  0.1243827E+07  0.1712896E+01  0.3314161E-01  0.2972777E+01
  0.1021739E+01  0.9589604E+06 -0.1401128E+01  0.2035131E+00 -0.2358451E+01  0.1769820E+06 -0.1927435E+00  0.1416040E+00 -0.1418708E+00  0.1247696E+07  0.1740363E+01  0.3140808E-01  0.2947438E+01
  0.1065217E+01  0.9894381E+06 -0.1372465E+01  0.1257987E+00  0.6680146E+00  0.1557827E+06 -0.2207220E+00  0.2671768E+00 -0.3012354E+01  0.1233358E+07  0.1768937E+01  0.2971942E-01  0.2919897E+01
  0.1108696E+01  0.1010224E+07 -0.1343243E+01  0.2809912E+00  0.1432020E+01  0.1366412E+06 -0.2499890E+00  0.4723547E+00  0.2302232E+01  0.1201501E+07  0.1798032E+01  0.2806328E-01  0.2890035E+01
  0.1152174E+01  0.1020504E+07 -0.1314479E+01  0.2006790E+00  0.1078535E+01  0.1195237E+06 -0.2813936E+00  0.1958813E+00  0.1442983E+01  0.1154303E+07  0.1826733E+01  0.2647031E-01  0.2857177E+01
  0.1195652E+01  0.1020610E+07 -0.1287702E+01  0.1679495E+00  0.2207555E+00  0.1039093E+06 -0.3161595E+00  0.2077504E+00  0.1531460E+01  0.1092034E+07  0.1853372E+01  0.2492300E-01  0.2821881E+01
  0.1239130E+01  0.1010650E+07 -0.1263900E+01  0.6207601E-01 -0.2925401E+00  0.8972830E+05 -0.3552631E+00  0.1414569E+00  0.1617551E+01  0.1017306E+07  0.1876933E+01  0.2343927E-01  0.2783516E+01
  0.1282609E+01  0.9916512E+06 -0.1243997E+01  0.2163239E+00  0.4673275E+00  0.7727011E+05 -0.3939641E+00  0.2628941E+00  0.1478101E+01  0.9333842E+06  0.1896447E+01  0.2200130E-01  0.2742328E+01
  0.1326087E+01  0.9650182E+06 -0.1229097E+01  0.7912979E-01  0.1763027E+01  0.6628064E+05 -0.4350613E+00  0.3293819E+00  0.2814313E+01  0.8437363E+06  0.1910954E+01  0.2064274E-01  0.2698361E+01
  0.1369565E+01  0.9326069E+06 -0.1219658E+01  0.3512630E-01  0.2743051E+01  0.5653519E+05 -0.4796537E+00  0.1770744E+00  0.2266230E+01  0.7512482E+06  0.1919959E+01  0.1935491E-01  0.2651679E+01
  0.1413043E+01  0.8955219E+06 -0.1216169E+01  0.1405910E+00 -0.6884744E-01  0.4805295E+05 -0.5291228E+00  0.5755459E-01  0.1982123E+01  0.6587176E+06  0.1922936E+01  0.1811399E-01  0.2600160E+01
  0.1456522E+01  0.8555273E+06 -0.1218957E+01  0.4230644E-01  0.2661984E+00  0.4071916E+05 -0.5810574E+00  0.1679482E+00  0.2642739E+01  0.5680801E+06  0.1919070E+01  0.1695686E-01  0.2546907E+01
  0.1500000E+01  0.8139454E+06 -0.1227917E+01  0.2114072E+00 -0.5816129E+00  0.3430630E+05 -0.6335222E+00  0.1378904E+00  0.2490499E+01  0.4814501E+06  0.1908980E+01  0.1584933E-01  0.2488966E+01
