VARIABLES="w (rad/s)"
"abs(F   1   1)" "angle(F   1   1)"
"abs(F   1   2)" "angle(F   1   2)"
"abs(F   1   3)" "angle(F   1   3)"
"abs(F   1   4)" "angle(F   1   4)"
"abs(F   1   5)" "angle(F   1   5)"
"abs(F   1   6)" "angle(F   1   6)"
Zone t="FKforce - beta =   0.000",I=    24,F=POINT
  0.5000000E+00  0.1939468E+06 -0.1570796E+01  0.2204445E+00 -0.3138893E+01  0.5998861E+06  0.1081036E-09  0.4841309E+00 -0.3113340E+01  0.3388099E+06  0.1570796E+01  0.5389675E-01 -0.3141587E+01
  0.5434783E+00  0.2156826E+06 -0.1570796E+01  0.2420825E-01 -0.6654720E-01  0.5719799E+06 -0.4460085E-10  0.4050520E-01 -0.2282857E+01  0.3712378E+06  0.1570796E+01  0.5263671E-01 -0.3141583E+01
  0.5869565E+00  0.2387083E+06 -0.1570796E+01  0.3175683E-01  0.2949662E+01  0.5429349E+06  0.2402037E-09  0.1571672E+00 -0.3127537E+01  0.4041388E+06  0.1570796E+01  0.5127934E-01 -0.3141579E+01
  0.6304348E+00  0.2629699E+06 -0.1570796E+01  0.1403692E+00 -0.3038084E+01  0.5131107E+06 -0.3577831E-09  0.2230172E+00 -0.2864254E+01  0.4371457E+06  0.1570796E+01  0.4988033E-01 -0.3141591E+01
  0.6739131E+00  0.2882830E+06 -0.1570796E+01  0.8159465E-01  0.5601458E-01  0.4828673E+06  0.3290389E-08  0.1391548E+00  0.1908512E+00  0.4696795E+06  0.1570796E+01  0.4837888E-01 -0.3141571E+01
  0.7173913E+00  0.3143421E+06 -0.1570796E+01  0.9503948E-02  0.2993139E+01  0.4525341E+06 -0.4130521E-09  0.3554097E+00 -0.3017351E+01  0.5009739E+06  0.1570796E+01  0.4684255E-01 -0.3141555E+01
  0.7608696E+00  0.3407576E+06 -0.1570796E+01  0.1883969E+00  0.3084979E+01  0.4223895E+06 -0.1167287E-08  0.3679594E+00  0.3118497E+01  0.5301707E+06  0.1570796E+01  0.4524562E-01  0.3141577E+01
  0.8043478E+00  0.3671124E+06 -0.1570796E+01  0.1967386E-01 -0.3075134E+01  0.3926613E+06 -0.2184656E-08  0.1268998E+00  0.2956398E+01  0.5564099E+06  0.1570796E+01  0.4361677E-01  0.3141589E+01
  0.8478261E+00  0.3930066E+06 -0.1570796E+01  0.2049939E+00 -0.1071031E+00  0.3635343E+06 -0.1247398E-08  0.7141333E-01  0.3811341E+00  0.5789194E+06  0.1570796E+01  0.4194987E-01 -0.3141544E+01
  0.8913044E+00  0.4180844E+06 -0.1570796E+01  0.1871840E+00 -0.2985423E+01  0.3351648E+06  0.3414467E-10  0.1102158E+00 -0.9632788E+00  0.5970612E+06  0.1570796E+01  0.4024792E-01 -0.3141551E+01
  0.9347826E+00  0.4420475E+06 -0.1570796E+01  0.4157367E-01 -0.1934212E+01  0.3076886E+06  0.1828693E-08  0.9767708E-02 -0.1373740E+01  0.6103481E+06  0.1570796E+01  0.3852798E-01 -0.3141565E+01
  0.9782609E+00  0.4646467E+06 -0.1570796E+01  0.5159722E-01  0.2498373E+01  0.2812267E+06 -0.2348353E-09  0.1768828E+00 -0.3111941E+01  0.6184368E+06  0.1570796E+01  0.3678781E-01  0.3141531E+01
  0.1021739E+01  0.4856769E+06 -0.1570796E+01  0.2637296E+00 -0.3129421E+01  0.2558876E+06 -0.2173730E-08  0.1247232E+00  0.3107384E+01  0.6211149E+06  0.1570796E+01  0.3503859E-01 -0.3141574E+01
  0.1065217E+01  0.5049690E+06 -0.1570796E+01  0.1167567E+00  0.7674057E-01  0.2317657E+06  0.5443907E-08  0.2511848E+00 -0.3108311E+01  0.6182890E+06  0.1570796E+01  0.3329061E-01  0.3141547E+01
  0.1108696E+01  0.5223889E+06 -0.1570796E+01  0.2911251E-01 -0.4408503E+00  0.2089360E+06 -0.1292875E-08  0.2252543E+00  0.3063792E+01  0.6099764E+06  0.1570796E+01  0.3153625E-01  0.3141583E+01
  0.1152174E+01  0.5378233E+06 -0.1570796E+01  0.3659751E-01  0.6282407E+00  0.1874579E+06 -0.1060724E-08  0.3253826E-01 -0.9879709E+00  0.5962904E+06  0.1570796E+01  0.2978618E-01 -0.3141578E+01
  0.1195652E+01  0.5511842E+06 -0.1570796E+01  0.7231350E-01 -0.2763106E+00  0.1673721E+06 -0.9746307E-08  0.5765506E-01  0.1563613E+01  0.5774406E+06  0.1570796E+01  0.2804589E-01 -0.3141533E+01
  0.1239130E+01  0.5624073E+06 -0.1570796E+01  0.6379676E-01 -0.2904351E+01  0.1487000E+06 -0.4199181E-08  0.3262740E-01 -0.2042628E+01  0.5537133E+06  0.1570796E+01  0.2632830E-01 -0.3141555E+01
  0.1282609E+01  0.5714455E+06 -0.1570796E+01  0.6763861E-01  0.7963254E+00  0.1314458E+06  0.5495863E-08  0.8572234E-01  0.1090149E+01  0.5254742E+06  0.1570796E+01  0.2461842E-01 -0.3141553E+01
  0.1326087E+01  0.5782711E+06 -0.1570796E+01  0.1086200E+00  0.2669110E+01  0.1155973E+06  0.1402495E-08  0.2406139E+00 -0.3086200E+01  0.4931542E+06  0.1570796E+01  0.2294299E-01 -0.3141448E+01
  0.1369565E+01  0.5828747E+06 -0.1570796E+01  0.1229570E+00 -0.2744266E+01  0.1011279E+06  0.4243668E-09  0.3937291E-01  0.4482859E+00  0.4572415E+06  0.1570796E+01  0.2130641E-01 -0.3141513E+01
  0.1413043E+01  0.5852590E+06 -0.1570796E+01  0.4237414E-01 -0.4148834E+00  0.8799602E+05  0.2330105E-08  0.5884726E-01 -0.9606271E+00  0.4182703E+06  0.1570796E+01  0.1968211E-01  0.3141556E+01
  0.1456522E+01  0.5854456E+06 -0.1570796E+01  0.7574716E-01  0.2788149E+01  0.7615106E+05  0.6793974E-09  0.7380854E-01  0.2955460E+01  0.3768101E+06  0.1570796E+01  0.1810284E-01 -0.3141486E+01
  0.1500000E+01  0.5834655E+06 -0.1570796E+01  0.4364913E-01  0.3597808E+00  0.6553211E+05  0.7927626E-08  0.3317344E-01 -0.2798104E+01  0.3334599E+06  0.1570796E+01  0.1655779E-01 -0.3141507E+01
