 VARIABLES="Time (s)"
"AddedMass    1" "IRF    1"
"AddedMass    2" "IRF    2"
"AddedMass    3" "IRF    3"
"AddedMass    4" "IRF    4"
"AddedMass    5" "IRF    5"
"AddedMass    6" "IRF    6"
Zone t="DoF    1",I=   100,F=POINT
  0.0000000E+00  0.5283029E+06  0.1786304E+06 -0.9240795E-01 -0.1411887E-01 -0.4101330E-01 -0.1115029E-01 -0.2553203E+00 -0.1764284E-01 -0.1002572E+07 -0.1773608E+06 -0.7333505E-06  0.8076206E-06
  0.1000000E+00  0.5283029E+06  0.1772449E+06 -0.9240795E-01 -0.1403760E-01 -0.4101330E-01 -0.1111217E-01 -0.2553203E+00 -0.1753079E-01 -0.1002572E+07 -0.1760889E+06 -0.7333505E-06  0.7995762E-06
  0.2000000E+00  0.5283029E+06  0.1731116E+06 -0.9240795E-01 -0.1379464E-01 -0.4101330E-01 -0.1099835E-01 -0.2553203E+00 -0.1719604E-01 -0.1002572E+07 -0.1722932E+06 -0.7333505E-06  0.7755906E-06
  0.3000000E+00  0.5283029E+06  0.1662997E+06 -0.9240795E-01 -0.1339255E-01 -0.4101330E-01 -0.1081041E-01 -0.2553203E+00 -0.1664285E-01 -0.1002572E+07 -0.1660334E+06 -0.7333505E-06  0.7361038E-06
  0.4000000E+00  0.5283029E+06  0.1569233E+06 -0.9240795E-01 -0.1283554E-01 -0.4101330E-01 -0.1055095E-01 -0.2553203E+00 -0.1587818E-01 -0.1002572E+07 -0.1574079E+06 -0.7333505E-06  0.6818402E-06
  0.5000000E+00  0.5283029E+06  0.1451393E+06 -0.9240795E-01 -0.1212950E-01 -0.4101330E-01 -0.1022354E-01 -0.2553203E+00 -0.1491173E-01 -0.1002572E+07 -0.1465522E+06 -0.7333505E-06  0.6137957E-06
  0.6000000E+00  0.5283029E+06  0.1311445E+06 -0.9240795E-01 -0.1128189E-01 -0.4101330E-01 -0.9832712E-02 -0.2553203E+00 -0.1375572E-01 -0.1002572E+07 -0.1336366E+06 -0.7333505E-06  0.5332198E-06
  0.7000000E+00  0.5283029E+06  0.1151724E+06 -0.9240795E-01 -0.1030175E-01 -0.4101330E-01 -0.9383809E-02 -0.2553203E+00 -0.1242480E-01 -0.1002572E+07 -0.1188632E+06 -0.7333505E-06  0.4415924E-06
  0.8000000E+00  0.5283029E+06  0.9748890E+05 -0.9240795E-01 -0.9199571E-02 -0.4101330E-01 -0.8882955E-02 -0.2553203E+00 -0.1093585E-01 -0.1002572E+07 -0.1024628E+06 -0.7333505E-06  0.3405975E-06
  0.9000000E+00  0.5283029E+06  0.7838752E+05 -0.9240795E-01 -0.7987264E-02 -0.4101330E-01 -0.8336933E-02 -0.2553203E+00 -0.9307781E-02 -0.1002572E+07 -0.8469068E+05 -0.7333505E-06  0.2320931E-06
  0.1000000E+01  0.5283029E+06  0.5818454E+05 -0.9240795E-01 -0.6678029E-02 -0.4101330E-01 -0.7753087E-02 -0.2553203E+00 -0.7561305E-02 -0.1002572E+07 -0.6582266E+05 -0.7333505E-06  0.1180769E-06
  0.1100000E+01  0.5283029E+06  0.3721320E+05 -0.9240795E-01 -0.5286259E-02 -0.4101330E-01 -0.7139176E-02 -0.2553203E+00 -0.5718660E-02 -0.1002572E+07 -0.4615037E+05 -0.7333505E-06  0.6506233E-09
  0.1200000E+01  0.5283029E+06  0.1581801E+05 -0.9240795E-01 -0.3827415E-02 -0.4101330E-01 -0.6503279E-02 -0.2553203E+00 -0.3803371E-02 -0.1002572E+07 -0.2597642E+05 -0.7333505E-06 -0.1180177E-06
  0.1300000E+01  0.5283029E+06 -0.5651309E+04 -0.9240795E-01 -0.2317886E-02 -0.4101330E-01 -0.5853642E-02 -0.2553203E+00 -0.1839924E-02 -0.1002572E+07 -0.5609444E+04 -0.7333505E-06 -0.2357336E-06
  0.1400000E+01  0.5283029E+06 -0.2684585E+05 -0.9240795E-01 -0.7748421E-03 -0.4101330E-01 -0.5198548E-02 -0.2553203E+00  0.1465177E-03 -0.1002572E+07  0.1464102E+05 -0.7333505E-06 -0.3503150E-06
  0.1500000E+01  0.5283029E+06 -0.4742365E+05 -0.9240795E-01  0.7839415E-03 -0.4101330E-01 -0.4546171E-02 -0.2553203E+00  0.2130443E-02 -0.1002572E+07  0.3446961E+05 -0.7333505E-06 -0.4596326E-06
  0.1600000E+01  0.5283029E+06 -0.6705539E+05 -0.9240795E-01  0.2340244E-02 -0.4101330E-01 -0.3904457E-02 -0.2553203E+00  0.4086304E-02 -0.1002572E+07  0.5358002E+05 -0.7333505E-06 -0.5616467E-06
  0.1700000E+01  0.5283029E+06 -0.8543020E+05 -0.9240795E-01  0.3875604E-02 -0.4101330E-01 -0.3280976E-02 -0.2553203E+00  0.5988848E-02 -0.1002572E+07  0.7168984E+05 -0.7333505E-06 -0.6544458E-06
  0.1800000E+01  0.5283029E+06 -0.1022608E+06 -0.9240795E-01  0.5371505E-02 -0.4101330E-01 -0.2682801E-02 -0.2553203E+00  0.7813434E-02 -0.1002572E+07  0.8853507E+05 -0.7333505E-06 -0.7362798E-06
  0.1900000E+01  0.5283029E+06 -0.1172882E+06 -0.9240795E-01  0.6809596E-02 -0.4101330E-01 -0.2116386E-02 -0.2553203E+00  0.9536359E-02 -0.1002572E+07  0.1038742E+06 -0.7333505E-06 -0.8055922E-06
  0.2000000E+01  0.5283029E+06 -0.1302864E+06 -0.9240795E-01  0.8171908E-02 -0.4101330E-01 -0.1587457E-02 -0.2553203E+00  0.1113517E-01 -0.1002572E+07  0.1174923E+06 -0.7333505E-06 -0.8610479E-06
  0.2100000E+01  0.5283029E+06 -0.1410656E+06 -0.9240795E-01  0.9441054E-02 -0.4101330E-01 -0.1100909E-02 -0.2553203E+00  0.1258895E-01 -0.1002572E+07  0.1292038E+06 -0.7333505E-06 -0.9015576E-06
  0.2200000E+01  0.5283029E+06 -0.1494754E+06 -0.9240795E-01  0.1060047E-01 -0.4101330E-01 -0.6607314E-03 -0.2553203E+00  0.1387858E-01 -0.1002572E+07  0.1388556E+06 -0.7333505E-06 -0.9262968E-06
  0.2300000E+01  0.5283029E+06 -0.1554070E+06 -0.9240795E-01  0.1163463E-01 -0.4101330E-01 -0.2699207E-03 -0.2553203E+00  0.1498706E-01 -0.1002572E+07  0.1463290E+06 -0.7333505E-06 -0.9347218E-06
  0.2400000E+01  0.5283029E+06 -0.1587948E+06 -0.9240795E-01  0.1252928E-01 -0.4101330E-01  0.6956402E-04 -0.2553203E+00  0.1589966E-01 -0.1002572E+07  0.1515418E+06 -0.7333505E-06 -0.9265780E-06
  0.2500000E+01  0.5283029E+06 -0.1596170E+06 -0.9240795E-01  0.1327161E-01 -0.4101330E-01  0.3568348E-03 -0.2553203E+00  0.1660419E-01 -0.1002572E+07  0.1544486E+06 -0.7333505E-06 -0.9019063E-06
  0.2600000E+01  0.5283029E+06 -0.1578958E+06 -0.9240795E-01  0.1385051E-01 -0.4101330E-01  0.5921143E-03 -0.2553203E+00  0.1709114E-01 -0.1002572E+07  0.1550413E+06 -0.7333505E-06 -0.8610412E-06
  0.2700000E+01  0.5283029E+06 -0.1536963E+06 -0.9240795E-01  0.1425672E-01 -0.4101330E-01  0.7767089E-03 -0.2553203E+00  0.1735385E-01 -0.1002572E+07  0.1533492E+06 -0.7333505E-06 -0.8046055E-06
  0.2800000E+01  0.5283029E+06 -0.1471248E+06 -0.9240795E-01  0.1448301E-01 -0.4101330E-01  0.9130220E-03 -0.2553203E+00  0.1738858E-01 -0.1002572E+07  0.1494376E+06 -0.7333505E-06 -0.7334994E-06
  0.2900000E+01  0.5283029E+06 -0.1383268E+06 -0.9240795E-01  0.1452433E-01 -0.4101330E-01  0.1004493E-02 -0.2553203E+00  0.1719462E-01 -0.1002572E+07  0.1434062E+06 -0.7333505E-06 -0.6488838E-06
  0.3000000E+01  0.5283029E+06 -0.1274840E+06 -0.9240795E-01  0.1437796E-01 -0.4101330E-01  0.1055560E-02 -0.2553203E+00  0.1677429E-01 -0.1002572E+07  0.1353873E+06 -0.7333505E-06 -0.5521611E-06
  0.3100000E+01  0.5283029E+06 -0.1148102E+06 -0.9240795E-01  0.1404359E-01 -0.4101330E-01  0.1071577E-02 -0.2553203E+00  0.1613293E-01 -0.1002572E+07  0.1255430E+06 -0.7333505E-06 -0.4449486E-06
  0.3200000E+01  0.5283029E+06 -0.1005478E+06 -0.9240795E-01  0.1352338E-01 -0.4101330E-01  0.1058733E-02 -0.2553203E+00  0.1527889E-01 -0.1002572E+07  0.1140619E+06 -0.7333505E-06 -0.3290520E-06
  0.3300000E+01  0.5283029E+06 -0.8496259E+05 -0.9240795E-01  0.1282204E-01 -0.4101330E-01  0.1023941E-02 -0.2553203E+00  0.1422337E-01 -0.1002572E+07  0.1011559E+06 -0.7333505E-06 -0.2064308E-06
  0.3400000E+01  0.5283029E+06 -0.6833921E+05 -0.9240795E-01  0.1194678E-01 -0.4101330E-01  0.9747231E-03 -0.2553203E+00  0.1298034E-01 -0.1002572E+07  0.8705603E+05 -0.7333505E-06 -0.7916638E-07
  0.3500000E+01  0.5283029E+06 -0.5097570E+05 -0.9240795E-01  0.1090734E-01 -0.4101330E-01  0.9190792E-03 -0.2553203E+00  0.1156638E-01 -0.1002572E+07  0.7200839E+05 -0.7333505E-06  0.5057574E-07
  0.3600000E+01  0.5283029E+06 -0.3317784E+05 -0.9240795E-01  0.9715846E-02 -0.4101330E-01  0.8653406E-03 -0.2553203E+00  0.1000042E-01 -0.1002572E+07  0.5626971E+05 -0.7333505E-06  0.1805860E-06
  0.3700000E+01  0.5283029E+06 -0.1525401E+05 -0.9240795E-01  0.8386782E-02 -0.4101330E-01  0.8220273E-03 -0.2553203E+00  0.8303535E-02 -0.1002572E+07  0.4010307E+05 -0.7333505E-06  0.3086457E-06
  0.3800000E+01  0.5283029E+06  0.2490624E+04 -0.9240795E-01  0.6936783E-02 -0.4101330E-01  0.7976786E-03 -0.2553203E+00  0.6498676E-02 -0.1002572E+07  0.2377304E+05 -0.7333505E-06  0.4325700E-06
  0.3900000E+01  0.5283029E+06  0.1975935E+05 -0.9240795E-01  0.5384474E-02 -0.4101330E-01  0.8007101E-03 -0.2553203E+00  0.4610336E-02 -0.1002572E+07  0.7541512E+04 -0.7333505E-06  0.5502433E-06
  0.4000000E+01  0.5283029E+06  0.3626892E+05 -0.9240795E-01  0.3750269E-02 -0.4101330E-01  0.8392318E-03 -0.2553203E+00  0.2664267E-02 -0.1002572E+07 -0.8336751E+04 -0.7333505E-06  0.6596567E-06
  0.4100000E+01  0.5283029E+06  0.5175474E+05 -0.9240795E-01  0.2056079E-02 -0.4101330E-01  0.9209095E-03 -0.2553203E+00  0.6870853E-03 -0.1002572E+07 -0.2361845E+05 -0.7333505E-06  0.7589446E-06
  0.4200000E+01  0.5283029E+06  0.6597507E+05 -0.9240795E-01  0.3250467E-03 -0.4101330E-01  0.1052780E-02 -0.2553203E+00 -0.1294074E-02 -0.1002572E+07 -0.3807553E+05 -0.7333505E-06  0.8464160E-06
  0.4300000E+01  0.5283029E+06  0.7871481E+05 -0.9240795E-01 -0.1418739E-02 -0.4101330E-01  0.1241139E-02 -0.2553203E+00 -0.3251899E-02 -0.1002572E+07 -0.5149852E+05 -0.7333505E-06  0.9205814E-06
  0.4400000E+01  0.5283029E+06  0.8978928E+05 -0.9240795E-01 -0.3150624E-02 -0.4101330E-01  0.1491356E-02 -0.2553203E+00 -0.5159335E-02 -0.1002572E+07 -0.6370017E+05 -0.7333505E-06  0.9801830E-06
  0.4500000E+01  0.5283029E+06  0.9904673E+05 -0.9240795E-01 -0.4845721E-02 -0.4101330E-01  0.1807787E-02 -0.2553203E+00 -0.6989941E-02 -0.1002572E+07 -0.7451787E+05 -0.7333505E-06  0.1024212E-05
  0.4600000E+01  0.5283029E+06  0.1063707E+06 -0.9240795E-01 -0.6479279E-02 -0.4101330E-01  0.2193624E-02 -0.2553203E+00 -0.8718275E-02 -0.1002572E+07 -0.8381602E+05 -0.7333505E-06  0.1051927E-05
  0.4700000E+01  0.5283029E+06  0.1116814E+06 -0.9240795E-01 -0.8027066E-02 -0.4101330E-01  0.2650825E-02 -0.2553203E+00 -0.1032025E-01 -0.1002572E+07 -0.9148778E+05 -0.7333505E-06  0.1062868E-05
  0.4800000E+01  0.5283029E+06  0.1149362E+06 -0.9240795E-01 -0.9465726E-02 -0.4101330E-01  0.3180011E-02 -0.2553203E+00 -0.1177348E-01 -0.1002572E+07 -0.9745612E+05 -0.7333505E-06  0.1056860E-05
  0.4900000E+01  0.5283029E+06  0.1161303E+06 -0.9240795E-01 -0.1077318E-01 -0.4101330E-01  0.3780412E-02 -0.2553203E+00 -0.1305764E-01 -0.1002572E+07 -0.1016748E+06 -0.7333505E-06  0.1034017E-05
  0.5000000E+01  0.5283029E+06  0.1152957E+06 -0.9240795E-01 -0.1192899E-01 -0.4101330E-01  0.4449835E-02 -0.2553203E+00 -0.1415473E-01 -0.1002572E+07 -0.1041280E+06 -0.7333505E-06  0.9947412E-06
  0.5100000E+01  0.5283029E+06  0.1125000E+06 -0.9240795E-01 -0.1291467E-01 -0.4101330E-01  0.5184623E-02 -0.2553203E+00 -0.1504938E-01 -0.1002572E+07 -0.1048305E+06 -0.7333505E-06  0.9397104E-06
  0.5200000E+01  0.5283029E+06  0.1078445E+06 -0.9240795E-01 -0.1371406E-01 -0.4101330E-01  0.5979702E-02 -0.2553203E+00 -0.1572908E-01 -0.1002572E+07 -0.1038262E+06 -0.7333505E-06  0.8698688E-06
  0.5300000E+01  0.5283029E+06  0.1014617E+06 -0.9240795E-01 -0.1431358E-01 -0.4101330E-01  0.6828542E-02 -0.2553203E+00 -0.1618435E-01 -0.1002572E+07 -0.1011867E+06 -0.7333505E-06  0.7864098E-06
  0.5400000E+01  0.5283029E+06  0.9351220E+05 -0.9240795E-01 -0.1470251E-01 -0.4101330E-01  0.7723284E-02 -0.2553203E+00 -0.1640894E-01 -0.1002572E+07 -0.9700984E+05 -0.7333505E-06  0.6907518E-06
  0.5500000E+01  0.5283029E+06  0.8418123E+05 -0.9240795E-01 -0.1487321E-01 -0.4101330E-01  0.8654755E-02 -0.2553203E+00 -0.1639988E-01 -0.1002572E+07 -0.9141672E+05 -0.7333505E-06  0.5845154E-06
  0.5600000E+01  0.5283029E+06  0.7367464E+05 -0.9240795E-01 -0.1482128E-01 -0.4101330E-01  0.9612604E-02 -0.2553203E+00 -0.1615762E-01 -0.1002572E+07 -0.8454939E+05 -0.7333505E-06  0.4694930E-06
  0.5700000E+01  0.5283029E+06  0.6221469E+05 -0.9240795E-01 -0.1454569E-01 -0.4101330E-01  0.1058540E-01 -0.2553203E+00 -0.1568594E-01 -0.1002572E+07 -0.7656762E+05 -0.7333505E-06  0.3476168E-06
  0.5800000E+01  0.5283029E+06  0.5003589E+05 -0.9240795E-01 -0.1404886E-01 -0.4101330E-01  0.1156077E-01 -0.2553203E+00 -0.1499201E-01 -0.1002572E+07 -0.6764591E+05 -0.7333505E-06  0.2209285E-06
  0.5900000E+01  0.5283029E+06  0.3737984E+05 -0.9240795E-01 -0.1333667E-01 -0.4101330E-01  0.1252556E-01 -0.2553203E+00 -0.1408625E-01 -0.1002572E+07 -0.5796956E+05 -0.7333505E-06  0.9153782E-07
  0.6000000E+01  0.5283029E+06  0.2449102E+05 -0.9240795E-01 -0.1241841E-01 -0.4101330E-01  0.1346604E-01 -0.2553203E+00 -0.1298216E-01 -0.1002572E+07 -0.4773155E+05 -0.7333505E-06 -0.3840912E-07
  0.6100000E+01  0.5283029E+06  0.1161196E+05 -0.9240795E-01 -0.1130672E-01 -0.4101330E-01  0.1436803E-01 -0.2553203E+00 -0.1169622E-01 -0.1002572E+07 -0.3712852E+05 -0.7333505E-06 -0.1667700E-06
  0.6200000E+01  0.5283029E+06 -0.1021284E+04 -0.9240795E-01 -0.1001737E-01 -0.4101330E-01  0.1521716E-01 -0.2553203E+00 -0.1024755E-01 -0.1002572E+07 -0.2635731E+05 -0.7333505E-06 -0.2914420E-06
  0.6300000E+01  0.5283029E+06 -0.1318310E+05 -0.9240795E-01 -0.8569137E-02 -0.4101330E-01  0.1599902E-01 -0.2553203E+00 -0.8657750E-02 -0.1002572E+07 -0.1561165E+05 -0.7333505E-06 -0.4103952E-06
  0.6400000E+01  0.5283029E+06 -0.2466277E+05 -0.9240795E-01 -0.6983479E-02 -0.4101330E-01  0.1669942E-01 -0.2553203E+00 -0.6950499E-02 -0.1002572E+07 -0.5078308E+04 -0.7333505E-06 -0.5217113E-06
  0.6500000E+01  0.5283029E+06 -0.3526785E+05 -0.9240795E-01 -0.5284237E-02 -0.4101330E-01  0.1730459E-01 -0.2553203E+00 -0.5151230E-02 -0.1002572E+07  0.5065789E+04 -0.7333505E-06 -0.6236133E-06
  0.6600000E+01  0.5283029E+06 -0.4482743E+05 -0.9240795E-01 -0.3497296E-02 -0.4101330E-01  0.1780138E-01 -0.2553203E+00 -0.3286772E-02 -0.1002572E+07  0.1465653E+05 -0.7333505E-06 -0.7144953E-06
  0.6700000E+01  0.5283029E+06 -0.5319489E+05 -0.9240795E-01 -0.1650171E-02 -0.4101330E-01  0.1817751E-01 -0.2553203E+00 -0.1384926E-02 -0.1002572E+07  0.2354530E+05 -0.7333505E-06 -0.7929478E-06
  0.6800000E+01  0.5283029E+06 -0.6025012E+05 -0.9240795E-01  0.2283944E-03 -0.4101330E-01  0.1842172E-01 -0.2553203E+00  0.5259224E-03 -0.1002572E+07  0.3160109E+05 -0.7333505E-06 -0.8577825E-06
  0.6900000E+01  0.5283029E+06 -0.6590116E+05 -0.9240795E-01  0.2108905E-02 -0.4101330E-01  0.1852400E-01 -0.2553203E+00  0.2417260E-02 -0.1002572E+07  0.3871256E+05 -0.7333505E-06 -0.9080493E-06
  0.7000000E+01  0.5283029E+06 -0.7008538E+05 -0.9240795E-01  0.3961592E-02 -0.4101330E-01  0.1847576E-01 -0.2553203E+00  0.4260876E-02 -0.1002572E+07  0.4478943E+05 -0.7333505E-06 -0.9430514E-06
  0.7100000E+01  0.5283029E+06 -0.7276990E+05 -0.9240795E-01  0.5756887E-02 -0.4101330E-01  0.1827001E-01 -0.2553203E+00  0.6029282E-02 -0.1002572E+07  0.4976348E+05 -0.7333505E-06 -0.9623558E-06
  0.7200000E+01  0.5283029E+06 -0.7395154E+05 -0.9240795E-01  0.7465912E-02 -0.4101330E-01  0.1790144E-01 -0.2553203E+00  0.7696151E-02 -0.1002572E+07  0.5358918E+05 -0.7333505E-06 -0.9657966E-06
  0.7300000E+01  0.5283029E+06 -0.7365608E+05 -0.9240795E-01  0.9060943E-02 -0.4101330E-01  0.1736663E-01 -0.2553203E+00  0.9236678E-02 -0.1002572E+07  0.5624374E+05 -0.7333505E-06 -0.9534779E-06
  0.7400000E+01  0.5283029E+06 -0.7193721E+05 -0.9240795E-01  0.1051591E-01 -0.4101330E-01  0.1666409E-01 -0.2553203E+00  0.1062803E-01 -0.1002572E+07  0.5772703E+05 -0.7333505E-06 -0.9257685E-06
  0.7500000E+01  0.5283029E+06 -0.6887471E+05 -0.9240795E-01  0.1180683E-01 -0.4101330E-01  0.1579434E-01 -0.2553203E+00  0.1184964E-01 -0.1002572E+07  0.5806073E+05 -0.7333505E-06 -0.8832927E-06
  0.7600000E+01  0.5283029E+06 -0.6457221E+05 -0.9240795E-01  0.1291222E-01 -0.4101330E-01  0.1475997E-01 -0.2553203E+00  0.1288358E-01 -0.1002572E+07  0.5728724E+05 -0.7333505E-06 -0.8269191E-06
  0.7700000E+01  0.5283029E+06 -0.5915472E+05 -0.9240795E-01  0.1381349E-01 -0.4101330E-01  0.1356563E-01 -0.2553203E+00  0.1371481E-01 -0.1002572E+07  0.5546832E+05 -0.7333505E-06 -0.7577419E-06
  0.7800000E+01  0.5283029E+06 -0.5276547E+05 -0.9240795E-01  0.1449522E-01 -0.4101330E-01  0.1221805E-01 -0.2553203E+00  0.1433141E-01 -0.1002572E+07  0.5268318E+05 -0.7333505E-06 -0.6770605E-06
  0.7900000E+01  0.5283029E+06 -0.4556281E+05 -0.9240795E-01  0.1494551E-01 -0.4101330E-01  0.1072597E-01 -0.2553203E+00  0.1472477E-01 -0.1002572E+07  0.4902650E+05 -0.7333505E-06 -0.5863561E-06
  0.8000000E+01  0.5283029E+06 -0.3771660E+05 -0.9240795E-01  0.1515618E-01 -0.4101330E-01  0.9100066E-02 -0.2553203E+00  0.1488977E-01 -0.1002572E+07  0.4460612E+05 -0.7333505E-06 -0.4872629E-06
  0.8100000E+01  0.5283029E+06 -0.2940452E+05 -0.9240795E-01  0.1512291E-01 -0.4101330E-01  0.7352886E-02 -0.2553203E+00  0.1482478E-01 -0.1002572E+07  0.3954045E+05 -0.7333505E-06 -0.3815390E-06
  0.8200000E+01  0.5283029E+06 -0.2080864E+05 -0.9240795E-01  0.1484536E-01 -0.4101330E-01  0.5498708E-02 -0.2553203E+00  0.1453178E-01 -0.1002572E+07  0.3395606E+05 -0.7333505E-06 -0.2710387E-06
  0.8300000E+01  0.5283029E+06 -0.1211118E+05 -0.9240795E-01  0.1432719E-01 -0.4101330E-01  0.3553320E-02 -0.2553203E+00  0.1401624E-01 -0.1002572E+07  0.2798458E+05 -0.7333505E-06 -0.1576713E-06
  0.8400001E+01  0.5283029E+06 -0.3491378E+04 -0.9240795E-01  0.1357602E-01 -0.4101330E-01  0.1533957E-02 -0.2553203E+00  0.1328709E-01 -0.1002572E+07  0.2176043E+05 -0.7333505E-06 -0.4337781E-07
  0.8500000E+01  0.5283029E+06  0.4878161E+04 -0.9240795E-01  0.1260338E-01 -0.4101330E-01 -0.5409405E-03 -0.2553203E+00  0.1235657E-01 -0.1002572E+07  0.1541792E+05 -0.7333505E-06  0.6990786E-07
  0.8600000E+01  0.5283029E+06  0.1283513E+05 -0.9240795E-01  0.1142440E-01 -0.4101330E-01 -0.2652042E-02 -0.2553203E+00  0.1124001E-01 -0.1002572E+07  0.9088352E+04 -0.7333505E-06  0.1802953E-06
  0.8700000E+01  0.5283029E+06  0.2022992E+05 -0.9240795E-01  0.1005776E-01 -0.4101330E-01 -0.4779163E-02 -0.2553203E+00  0.9955648E-02 -0.1002572E+07  0.2898017E+04 -0.7333505E-06  0.2859614E-06
  0.8800000E+01  0.5283029E+06  0.2692886E+05 -0.9240795E-01  0.8525174E-02 -0.4101330E-01 -0.6901735E-02 -0.2553203E+00  0.8524215E-02 -0.1002572E+07 -0.3034536E+04 -0.7333505E-06  0.3851882E-06
  0.8900001E+01  0.5283029E+06  0.3281607E+05 -0.9240795E-01  0.6851261E-02 -0.4101330E-01 -0.8998856E-02 -0.2553203E+00  0.6968762E-02 -0.1002572E+07 -0.8600302E+04 -0.7333505E-06  0.4763861E-06
  0.9000000E+01  0.5283029E+06  0.3779568E+05 -0.9240795E-01  0.5062989E-02 -0.4101330E-01 -0.1104967E-01 -0.2553203E+00  0.5314188E-02 -0.1002572E+07 -0.1370181E+05 -0.7333505E-06  0.5581225E-06
  0.9100000E+01  0.5283029E+06  0.4179326E+05 -0.9240795E-01  0.3189247E-02 -0.4101330E-01 -0.1303364E-01 -0.2553203E+00  0.3586830E-02 -0.1002572E+07 -0.1825484E+05 -0.7333505E-06  0.6291452E-06
  0.9200000E+01  0.5283029E+06  0.4475646E+05 -0.9240795E-01  0.1260462E-02 -0.4101330E-01 -0.1493070E-01 -0.2553203E+00  0.1814162E-02 -0.1002572E+07 -0.2218923E+05 -0.7333505E-06  0.6883976E-06
  0.9300000E+01  0.5283029E+06  0.4665608E+05 -0.9240795E-01 -0.6920834E-03 -0.4101330E-01 -0.1672167E-01 -0.2553203E+00  0.2416450E-04 -0.1002572E+07 -0.2545045E+05 -0.7333505E-06  0.7350407E-06
  0.9400001E+01  0.5283029E+06  0.4748550E+05 -0.9240795E-01 -0.2636583E-02 -0.4101330E-01 -0.1838832E-01 -0.2553203E+00 -0.1754920E-02 -0.1002572E+07 -0.2799952E+05 -0.7333505E-06  0.7684591E-06
  0.9500000E+01  0.5283029E+06  0.4726065E+05 -0.9240795E-01 -0.4541370E-02 -0.4101330E-01 -0.1991374E-01 -0.2553203E+00 -0.3495165E-02 -0.1002572E+07 -0.2981375E+05 -0.7333505E-06  0.7882718E-06
  0.9600000E+01  0.5283029E+06  0.4601902E+05 -0.9240795E-01 -0.6375452E-02 -0.4101330E-01 -0.2128252E-01 -0.2553203E+00 -0.5169406E-02 -0.1002572E+07 -0.3088652E+05 -0.7333505E-06  0.7943360E-06
  0.9700000E+01  0.5283029E+06  0.4381825E+05 -0.9240795E-01 -0.8108922E-02 -0.4101330E-01 -0.2248089E-01 -0.2553203E+00 -0.6751567E-02 -0.1002572E+07 -0.3122677E+05 -0.7333505E-06  0.7867455E-06
  0.9800000E+01  0.5283029E+06  0.4073455E+05 -0.9240795E-01 -0.9713648E-02 -0.4101330E-01 -0.2349699E-01 -0.2553203E+00 -0.8217239E-02 -0.1002572E+07 -0.3085859E+05 -0.7333505E-06  0.7658262E-06
  0.9900001E+01  0.5283029E+06  0.3686059E+05 -0.9240795E-01 -0.1116355E-01 -0.4101330E-01 -0.2432095E-01 -0.2553203E+00 -0.9543891E-02 -0.1002572E+07 -0.2981984E+05 -0.7333505E-06  0.7321282E-06
Zone t="DoF    2",I=   100,F=POINT
  0.0000000E+00 -0.6848544E-02 -0.1198870E-01  0.5283028E+06  0.1786304E+06 -0.3248081E-01 -0.8141323E-02  0.1002572E+07  0.1773608E+06  0.2030457E+00  0.1129133E-01  0.6306286E-06  0.1233058E-05
  0.1000000E+00 -0.6848544E-02 -0.1189403E-01  0.5283028E+06  0.1772449E+06 -0.3248081E-01 -0.8065168E-02  0.1002572E+07  0.1760889E+06  0.2030457E+00  0.1120840E-01  0.6306286E-06  0.1227930E-05
  0.2000000E+00 -0.6848544E-02 -0.1161156E-01  0.5283028E+06  0.1731115E+06 -0.3248081E-01 -0.7838071E-02  0.1002572E+07  0.1722932E+06  0.2030457E+00  0.1096084E-01  0.6306286E-06  0.1212583E-05
  0.3000000E+00 -0.6848544E-02 -0.1114589E-01  0.5283028E+06  0.1662996E+06 -0.3248081E-01 -0.7464124E-02  0.1002572E+07  0.1660333E+06  0.2030457E+00  0.1055227E-01  0.6306286E-06  0.1187128E-05
  0.4000000E+00 -0.6848544E-02 -0.1050456E-01  0.5283028E+06  0.1569232E+06 -0.3248081E-01 -0.6950062E-02  0.1002572E+07  0.1574079E+06  0.2030457E+00  0.9988724E-02  0.6306286E-06  0.1151750E-05
  0.5000000E+00 -0.6848544E-02 -0.9698002E-02  0.5283028E+06  0.1451392E+06 -0.3248081E-01 -0.6305154E-02  0.1002572E+07  0.1465522E+06  0.2030457E+00  0.9278468E-02  0.6306286E-06  0.1106708E-05
  0.6000000E+00 -0.6848544E-02 -0.8739284E-02  0.5283028E+06  0.1311445E+06 -0.3248081E-01 -0.5541057E-02  0.1002572E+07  0.1336366E+06  0.2030457E+00  0.8431942E-02  0.6306286E-06  0.1052334E-05
  0.7000000E+00 -0.6848544E-02 -0.7643948E-02  0.5283028E+06  0.1151724E+06 -0.3248081E-01 -0.4671604E-02  0.1002572E+07  0.1188632E+06  0.2030457E+00  0.7461568E-02  0.6306286E-06  0.9890310E-06
  0.8000000E+00 -0.6848544E-02 -0.6429717E-02  0.5283028E+06  0.9748887E+05 -0.3248081E-01 -0.3712576E-02  0.1002572E+07  0.1024628E+06  0.2030457E+00  0.6381582E-02  0.6306286E-06  0.9172751E-06
  0.9000000E+00 -0.6848544E-02 -0.5116217E-02  0.5283028E+06  0.7838750E+05 -0.3248081E-01 -0.2681446E-02  0.1002572E+07  0.8469066E+05  0.2030457E+00  0.5207809E-02  0.6306286E-06  0.8376116E-06
  0.1000000E+01 -0.6848544E-02 -0.3724641E-02  0.5283028E+06  0.5818453E+05 -0.3248081E-01 -0.1597062E-02  0.1002572E+07  0.6582266E+05  0.2030457E+00  0.3957427E-02  0.6306286E-06  0.7506540E-06
  0.1100000E+01 -0.6848544E-02 -0.2277396E-02  0.5283028E+06  0.3721319E+05 -0.3248081E-01 -0.4793483E-03  0.1002572E+07  0.4615036E+05  0.2030457E+00  0.2648711E-02  0.6306286E-06  0.6570816E-06
  0.1200000E+01 -0.6848544E-02 -0.7977337E-03  0.5283028E+06  0.1581801E+05 -0.3248081E-01  0.6510423E-03  0.1002572E+07  0.2597642E+05  0.2030457E+00  0.1300759E-02  0.6306286E-06  0.5576371E-06
  0.1300000E+01 -0.6848544E-02  0.6906386E-03  0.5283028E+06 -0.5651308E+04 -0.3248081E-01  0.1773082E-02  0.1002572E+07  0.5609437E+04  0.2030457E+00 -0.6679344E-04  0.6306286E-06  0.4531229E-06
  0.1400000E+01 -0.6848544E-02  0.2163947E-02  0.5283028E+06 -0.2684584E+05 -0.3248081E-01  0.2865717E-02  0.1002572E+07 -0.1464102E+05  0.2030457E+00 -0.1434065E-02  0.6306286E-06  0.3443964E-06
  0.1500000E+01 -0.6848544E-02  0.3598752E-02  0.5283028E+06 -0.4742364E+05 -0.3248081E-01  0.3908244E-02  0.1002572E+07 -0.3446961E+05  0.2030457E+00 -0.2781232E-02  0.6306286E-06  0.2323663E-06
  0.1600000E+01 -0.6848544E-02  0.4972320E-02  0.5283028E+06 -0.6705538E+05 -0.3248081E-01  0.4880651E-02  0.1002572E+07 -0.5358002E+05  0.2030457E+00 -0.4088807E-02  0.6306286E-06  0.1179864E-06
  0.1700000E+01 -0.6848544E-02  0.6263007E-02  0.5283028E+06 -0.8543017E+05 -0.3248081E-01  0.5763971E-02  0.1002572E+07 -0.7168984E+05  0.2030457E+00 -0.5337942E-02  0.6306286E-06  0.2248352E-08
  0.1800000E+01 -0.6848544E-02  0.7450601E-02  0.5283028E+06 -0.1022607E+06 -0.3248081E-01  0.6540606E-02  0.1002572E+07 -0.8853507E+05  0.2030457E+00 -0.6510693E-02  0.6306286E-06 -0.1138240E-06
  0.1900000E+01 -0.6848544E-02  0.8516657E-02  0.5283028E+06 -0.1172881E+06 -0.3248081E-01  0.7194648E-02  0.1002572E+07 -0.1038742E+06  0.2030457E+00 -0.7590291E-02  0.6306286E-06 -0.2291842E-06
  0.2000000E+01 -0.6848544E-02  0.9444793E-02  0.5283028E+06 -0.1302864E+06 -0.3248081E-01  0.7712151E-02  0.1002572E+07 -0.1174923E+06  0.2030457E+00 -0.8561384E-02  0.6306286E-06 -0.3427717E-06
  0.2100000E+01 -0.6848544E-02  0.1022094E-01  0.5283028E+06 -0.1410655E+06 -0.3248081E-01  0.8081383E-02  0.1002572E+07 -0.1292038E+06  0.2030457E+00 -0.9410257E-02  0.6306286E-06 -0.4535211E-06
  0.2200000E+01 -0.6848544E-02  0.1083356E-01  0.5283028E+06 -0.1494753E+06 -0.3248081E-01  0.8293044E-02  0.1002572E+07 -0.1388556E+06  0.2030457E+00 -0.1012502E-01  0.6306286E-06 -0.5603725E-06
  0.2300000E+01 -0.6848544E-02  0.1127385E-01  0.5283028E+06 -0.1554069E+06 -0.3248081E-01  0.8340447E-02  0.1002572E+07 -0.1463290E+06  0.2030457E+00 -0.1069579E-01  0.6306286E-06 -0.6622831E-06
  0.2400000E+01 -0.6848544E-02  0.1153582E-01  0.5283028E+06 -0.1587947E+06 -0.3248081E-01  0.8219646E-02  0.1002572E+07 -0.1515418E+06  0.2030457E+00 -0.1111481E-01  0.6306286E-06 -0.7582383E-06
  0.2500000E+01 -0.6848544E-02  0.1161642E-01  0.5283028E+06 -0.1596170E+06 -0.3248081E-01  0.7929531E-02  0.1002572E+07 -0.1544485E+06  0.2030457E+00 -0.1137658E-01  0.6306286E-06 -0.8472628E-06
  0.2600000E+01 -0.6848544E-02  0.1151556E-01  0.5283028E+06 -0.1578958E+06 -0.3248081E-01  0.7471873E-02  0.1002572E+07 -0.1550413E+06  0.2030457E+00 -0.1147789E-01  0.6306286E-06 -0.9284337E-06
  0.2700000E+01 -0.6848544E-02  0.1123606E-01  0.5283028E+06 -0.1536962E+06 -0.3248081E-01  0.6851326E-02  0.1002572E+07 -0.1533492E+06  0.2030457E+00 -0.1141789E-01  0.6306286E-06 -0.1000891E-05
  0.2800000E+01 -0.6848544E-02  0.1078363E-01  0.5283028E+06 -0.1471247E+06 -0.3248081E-01  0.6075368E-02  0.1002572E+07 -0.1494376E+06  0.2030457E+00 -0.1119804E-01  0.6306286E-06 -0.1063850E-05
  0.2900000E+01 -0.6848544E-02  0.1016672E-01  0.5283028E+06 -0.1383268E+06 -0.3248081E-01  0.5154211E-02  0.1002572E+07 -0.1434062E+06  0.2030457E+00 -0.1082214E-01  0.6306286E-06 -0.1116614E-05
  0.3000000E+01 -0.6848544E-02  0.9396372E-02  0.5283028E+06 -0.1274839E+06 -0.3248081E-01  0.4100683E-02  0.1002572E+07 -0.1353873E+06  0.2030457E+00 -0.1029620E-01  0.6306286E-06 -0.1158582E-05
  0.3100000E+01 -0.6848544E-02  0.8486018E-02  0.5283028E+06 -0.1148101E+06 -0.3248081E-01  0.2930000E-02  0.1002572E+07 -0.1255429E+06  0.2030457E+00 -0.9628370E-02  0.6306286E-06 -0.1189263E-05
  0.3200000E+01 -0.6848544E-02  0.7451235E-02  0.5283028E+06 -0.1005477E+06 -0.3248081E-01  0.1659594E-02  0.1002572E+07 -0.1140619E+06  0.2030457E+00 -0.8828807E-02  0.6306286E-06 -0.1208281E-05
  0.3300000E+01 -0.6848544E-02  0.6309473E-02  0.5283028E+06 -0.8496255E+05 -0.3248081E-01  0.3088150E-03  0.1002572E+07 -0.1011559E+06  0.2030457E+00 -0.7909485E-02  0.6306286E-06 -0.1215385E-05
  0.3400000E+01 -0.6848544E-02  0.5079745E-02  0.5283028E+06 -0.6833920E+05 -0.3248081E-01 -0.1101340E-02  0.1002572E+07 -0.8705601E+05  0.2030457E+00 -0.6884025E-02  0.6306286E-06 -0.1210454E-05
  0.3500000E+01 -0.6848544E-02  0.3782317E-02  0.5283028E+06 -0.5097568E+05 -0.3248081E-01 -0.2548539E-02  0.1002572E+07 -0.7200838E+05  0.2030457E+00 -0.5767491E-02  0.6306286E-06 -0.1193506E-05
  0.3600000E+01 -0.6848544E-02  0.2438330E-02  0.5283028E+06 -0.3317782E+05 -0.3248081E-01 -0.4009486E-02  0.1002572E+07 -0.5626970E+05  0.2030457E+00 -0.4576129E-02  0.6306286E-06 -0.1164695E-05
  0.3700000E+01 -0.6848544E-02  0.1069481E-02  0.5283028E+06 -0.1525400E+05 -0.3248081E-01 -0.5460249E-02  0.1002572E+07 -0.4010304E+05  0.2030457E+00 -0.3327151E-02  0.6306286E-06 -0.1124317E-05
  0.3800000E+01 -0.6848544E-02 -0.3023727E-03  0.5283028E+06  0.2490625E+04 -0.3248081E-01 -0.6876653E-02  0.1002572E+07 -0.2377303E+05  0.2030457E+00 -0.2038453E-02  0.6306286E-06 -0.1072808E-05
  0.3900000E+01 -0.6848544E-02 -0.1655556E-02  0.5283028E+06  0.1975934E+05 -0.3248081E-01 -0.8234655E-02  0.1002572E+07 -0.7541503E+04  0.2030457E+00 -0.7283512E-03  0.6306286E-06 -0.1010743E-05
  0.4000000E+01 -0.6848544E-02 -0.2968925E-02  0.5283028E+06  0.3626891E+05 -0.3248081E-01 -0.9510707E-02  0.1002572E+07  0.8336767E+04  0.2030457E+00  0.5846733E-03  0.6306286E-06 -0.9388274E-06
  0.4100000E+01 -0.6848544E-02 -0.4222234E-02  0.5283028E+06  0.5175473E+05 -0.3248081E-01 -0.1068215E-01  0.1002572E+07  0.2361845E+05  0.2030457E+00  0.1882272E-02  0.6306286E-06 -0.8578955E-06
  0.4200000E+01 -0.6848544E-02 -0.5396445E-02  0.5283028E+06  0.6597506E+05 -0.3248081E-01 -0.1172758E-01  0.1002572E+07  0.3807554E+05  0.2030457E+00  0.3146488E-02  0.6306286E-06 -0.7688967E-06
  0.4300000E+01 -0.6848544E-02 -0.6474009E-02  0.5283028E+06  0.7871480E+05 -0.3248081E-01 -0.1262714E-01  0.1002572E+07  0.5149852E+05  0.2030457E+00  0.4359984E-02  0.6306286E-06 -0.6728898E-06
  0.4400000E+01 -0.6848544E-02 -0.7439165E-02  0.5283028E+06  0.8978926E+05 -0.3248081E-01 -0.1336290E-01  0.1002572E+07  0.6370017E+05  0.2030457E+00  0.5506337E-02  0.6306286E-06 -0.5710263E-06
  0.4500000E+01 -0.6848544E-02 -0.8278165E-02  0.5283028E+06  0.9904671E+05 -0.3248081E-01 -0.1391914E-01  0.1002572E+07  0.7451787E+05  0.2030457E+00  0.6570239E-02  0.6306286E-06 -0.4645375E-06
  0.4600000E+01 -0.6848544E-02 -0.8979478E-02  0.5283028E+06  0.1063707E+06 -0.3248081E-01 -0.1428260E-01  0.1002572E+07  0.8381602E+05  0.2030457E+00  0.7537717E-02  0.6306286E-06 -0.3547198E-06
  0.4700000E+01 -0.6848544E-02 -0.9533945E-02  0.5283028E+06  0.1116813E+06 -0.3248081E-01 -0.1444269E-01  0.1002572E+07  0.9148778E+05  0.2030457E+00  0.8396320E-02  0.6306286E-06 -0.2429150E-06
  0.4800000E+01 -0.6848544E-02 -0.9934892E-02  0.5283028E+06  0.1149361E+06 -0.3248081E-01 -0.1439170E-01  0.1002572E+07  0.9745612E+05  0.2030457E+00  0.9135276E-02  0.6306286E-06 -0.1304947E-06
  0.4900000E+01 -0.6848544E-02 -0.1017822E-01  0.5283028E+06  0.1161302E+06 -0.3248081E-01 -0.1412494E-01  0.1002572E+07  0.1016747E+06  0.2030457E+00  0.9745645E-02  0.6306286E-06 -0.1883903E-07
  0.5000000E+01 -0.6848544E-02 -0.1026244E-01  0.5283028E+06  0.1152956E+06 -0.3248081E-01 -0.1364084E-01  0.1002572E+07  0.1041280E+06  0.2030457E+00  0.1022041E-01  0.6306286E-06  0.9068214E-07