VARIABLES="w (rad/s)"
"A   1   1" "B   1   1"
"A   1   2" "B   1   2"
"A   1   3" "B   1   3"
"A   1   4" "B   1   4"
"A   1   5" "B   1   5"
"A   1   6" "B   1   6"
Zone t="Motion of body    1 in DoF   1",I=    24,F=POINT
  0.5000000E+00  0.6379180E+06  0.3937079E+04 -0.9417725E-01 -0.6582737E-03 -0.2985022E+00 -0.8504896E-01 -0.1090280E+00 -0.2002032E-02 -0.1185546E+07 -0.6943106E+04 -0.4574656E-05 -0.1876615E-06
  0.5434783E+00  0.6485995E+06  0.6266226E+04 -0.3544616E-01  0.1276135E-02 -0.2713886E+00 -0.9135529E-01 -0.1682582E+00  0.6215360E-02 -0.1195719E+07 -0.1089126E+05 -0.5360245E-05  0.1338776E-07
  0.5869565E+00  0.6602455E+06  0.9800959E+04 -0.2662687E-01 -0.2715886E-02 -0.2506907E+00 -0.1055413E+00 -0.2017191E+00 -0.3410465E-02 -0.1208260E+07 -0.1675263E+05 -0.2576797E-05 -0.2670567E-05
  0.6304348E+00  0.6733202E+06  0.1521896E+05 -0.7053532E-01 -0.2368569E-02 -0.1798202E+00 -0.1044811E+00 -0.3369569E+00 -0.7534618E-02 -0.1223806E+07 -0.2559484E+05  0.6251807E-05  0.1135282E-05
  0.6739131E+00  0.6881211E+06  0.2305598E+05 -0.9492972E-01 -0.4064441E-02 -0.1420622E+00 -0.9443744E-01 -0.3760638E+00  0.1157625E-01 -0.1237096E+07 -0.3797337E+05  0.2166917E-05  0.6803311E-06
  0.7173913E+00  0.7033997E+06  0.3424519E+05 -0.2456186E+00 -0.2669096E-02 -0.6865501E-01 -0.4501317E-01 -0.3508897E+00  0.9882753E-03 -0.1249210E+07 -0.5515569E+05  0.1256665E-05 -0.1487322E-05
  0.7608696E+00  0.7186445E+06  0.4968759E+05 -0.1884813E+00 -0.1411414E-01 -0.1962198E-02 -0.1366198E-01 -0.4454625E+00 -0.1982491E-02 -0.1261940E+07 -0.7822447E+05 -0.7246221E-05  0.1210719E-06
  0.8043478E+00  0.7326991E+06  0.6991336E+05 -0.1480496E+00 -0.1186085E-01  0.9477828E-01  0.5338013E-02 -0.4854520E+00 -0.2924643E-01 -0.1272722E+07 -0.1073708E+06 -0.4260927E-06 -0.3649853E-05
  0.8478261E+00  0.7454121E+06  0.9609612E+05 -0.2389084E+00 -0.1137924E-01  0.1553208E+00  0.8202440E-01 -0.3621231E+00 -0.2278587E-01 -0.1275231E+07 -0.1434189E+06  0.4297266E-05  0.4442409E-05
  0.8913044E+00  0.7551264E+06  0.1285860E+06 -0.2257136E+00 -0.1677513E-01  0.7041164E-01  0.9289587E-01 -0.3566062E+00  0.5972702E-03 -0.1271498E+07 -0.1859820E+06  0.6954844E-05 -0.4522502E-05
  0.9347826E+00  0.7600972E+06  0.1675447E+06 -0.2834714E+00 -0.3058434E-01  0.3461470E-01  0.1068861E+00 -0.3899958E+00 -0.4010539E-01 -0.1260916E+07 -0.2343523E+06  0.7858803E-05  0.6891787E-06
  0.9782609E+00  0.7587706E+06  0.2130545E+06 -0.4283956E-01  0.4192734E-01 -0.4264629E-01  0.1027848E+00 -0.1151616E+00  0.8325983E-02 -0.1242197E+07 -0.2877508E+06 -0.1000762E-04 -0.1754612E-05
  0.1021739E+01  0.7506511E+06  0.2638881E+06  0.1689835E+00  0.7336712E-01 -0.5044214E-01 -0.4711521E-01  0.1407731E+00  0.6336001E-01 -0.1214379E+07 -0.3430978E+06  0.2377211E-05 -0.2518296E-05
  0.1065217E+01  0.7349359E+06  0.3181405E+06 -0.7046262E-01 -0.5429935E-01 -0.6242966E-01 -0.5052853E-01  0.2686405E-01 -0.7740346E-01 -0.1175012E+07 -0.3960948E+06  0.2797770E-05  0.8381903E-06
  0.1108696E+01  0.7110280E+06  0.3738905E+06 -0.3151859E+00 -0.1786556E+00  0.2390646E-01  0.5810106E-01 -0.5158859E+00 -0.1284762E+00 -0.1126609E+07 -0.4439122E+06  0.3145021E-05  0.4187226E-05
  0.1152174E+01  0.6794202E+06  0.4284848E+06 -0.1406060E+00 -0.1305408E+00  0.4227918E-01 -0.4919624E-01 -0.3401338E+00 -0.1649460E+00 -0.1073095E+07 -0.4837716E+06 -0.1228643E-04  0.1084059E-05
  0.1195652E+01  0.6419505E+06  0.4787182E+06 -0.6025211E-01 -0.1043625E+00  0.6673486E-01 -0.6803107E-01 -0.3566700E+00 -0.1091107E+00 -0.1015843E+07 -0.5110036E+06 -0.4224886E-05  0.1162291E-05
  0.1239130E+01  0.5999637E+06  0.5222501E+06 -0.1265891E-01 -0.7413673E-01  0.5398258E-01 -0.6876957E-01 -0.3113661E+00 -0.6113213E-01 -0.9580093E+06 -0.5239153E+06  0.2573458E-05 -0.1050532E-05
  0.1282609E+01  0.5556298E+06  0.5575329E+06 -0.8874924E-02 -0.4138184E-01  0.4841689E-01 -0.4860699E-01 -0.1666518E+00 -0.9210443E-01 -0.9031492E+06 -0.5222501E+06 -0.6459526E-05  0.1455098E-04
  0.1326087E+01  0.5110997E+06  0.5832275E+06 -0.2769070E-01 -0.5091858E-01  0.6606224E-01 -0.3060889E-01 -0.1338828E+00 -0.6072989E-01 -0.8540856E+06 -0.5067369E+06  0.3067685E-05  0.3643334E-05
  0.1369565E+01  0.4684028E+06  0.5996486E+06 -0.1940821E-01 -0.4254341E-01  0.5867743E-01 -0.7542849E-02 -0.2392899E+00 -0.1529414E-01 -0.8124243E+06 -0.4791616E+06  0.4553370E-05  0.1191348E-04
  0.1413043E+01  0.4284302E+06  0.6069396E+06 -0.4380964E-01  0.9176254E-02  0.3298757E-01 -0.9248257E-03 -0.2206506E+00  0.1645533E-01 -0.7789821E+06 -0.4416551E+06  0.3754177E-05  0.3568828E-05
  0.1456522E+01  0.3924006E+06  0.6061041E+06 -0.4682853E-01  0.7100773E-01  0.1762822E-01  0.3907204E-02 -0.2510980E+00  0.4926648E-01 -0.7536464E+06 -0.3960420E+06  0.6276502E-05 -0.4976988E-05
  0.1500000E+01  0.3607742E+06  0.5987068E+06 -0.3531647E-01  0.1337090E+00  0.2166875E-01  0.2712047E-01 -0.2261612E+00  0.4214434E-01 -0.7364702E+06 -0.3463383E+06 -0.1917283E-05  0.7744879E-05
Zone t="Motion of body    1 in DoF   2",I=    24,F=POINT
  0.5000000E+00  0.1167603E+00  0.2204120E-02  0.6379180E+06  0.3937083E+04 -0.1059192E+00 -0.9518825E-02  0.1185546E+07  0.6943132E+04 -0.6705924E-01 -0.1069875E-01  0.4043803E-05 -0.3222187E-05
  0.5434783E+00  0.1224367E+00 -0.1698375E-02  0.6485992E+06  0.6266226E+04 -0.1710250E+00 -0.2856507E-01  0.1195720E+07  0.1089125E+05  0.6303901E-01  0.1673622E-02 -0.4173554E-05  0.1279477E-06
  0.5869565E+00  0.9883527E-01  0.1879334E-02  0.6602455E+06  0.9800958E+04 -0.2454429E+00 -0.5544411E-01  0.1208260E+07  0.1675262E+05  0.1947042E+00  0.4770920E-02 -0.5720045E-05  0.1081207E-06
  0.6304348E+00  0.5030112E-01  0.5235910E-02  0.6733200E+06  0.1521897E+05 -0.2496513E+00 -0.7039722E-01  0.1223806E+07  0.2559485E+05  0.2685858E+00 -0.1520461E-01 -0.6758511E-06 -0.1493027E-05
  0.6739131E+00  0.8378982E-01 -0.2260089E-02  0.6881208E+06  0.2305598E+05 -0.2163656E+00 -0.6727002E-01  0.1237096E+07  0.3797331E+05  0.2628358E+00 -0.1048813E-01  0.4093372E-05  0.7555151E-05
  0.7173913E+00 -0.4153731E-01 -0.2260208E-03  0.7033994E+06  0.3424517E+05 -0.1235286E+00 -0.1037579E-01  0.1249209E+07  0.5515570E+05  0.2440090E+00 -0.1424379E-01 -0.4537234E-05 -0.2351007E-06
  0.7608696E+00 -0.2663225E-01 -0.3238678E-02  0.7186440E+06  0.4968760E+05 -0.1093788E-02  0.7267401E-01  0.1261940E+07  0.7822452E+05  0.2332527E+00  0.6410019E-02 -0.4408322E-05  0.3701483E-05
  0.8043478E+00  0.1017761E-01  0.5118370E-02  0.7326986E+06  0.6991335E+05  0.3519989E-03  0.1087505E+00  0.1272722E+07  0.1073708E+06  0.1449190E+00 -0.1782169E-02 -0.1156703E-05  0.3804220E-05
  0.8478261E+00 -0.3654402E-01  0.5513191E-02  0.7454116E+06  0.9609603E+05 -0.3564347E-01  0.1673627E+00  0.1275230E+07  0.1434188E+06  0.2035095E+00 -0.3165262E-01  0.3505259E-05  0.4924834E-05
  0.8913044E+00 -0.5117909E-01 -0.1792431E-02  0.7551261E+06  0.1285860E+06 -0.6136687E-01  0.1778484E+00  0.1271498E+07  0.1859818E+06  0.2059695E+00  0.4491735E-01 -0.2992589E-05 -0.1337961E-05
  0.9347826E+00 -0.1908241E+00 -0.3071785E-02  0.7600972E+06  0.1675447E+06 -0.1868349E+00  0.8008035E-01  0.1260916E+07  0.2343524E+06  0.5918470E+00  0.4211435E-01  0.4856955E-05  0.2027908E-04
  0.9782609E+00 -0.1469515E+00  0.1296997E-02  0.7587706E+06  0.2130545E+06 -0.1341776E+00 -0.1129126E+00  0.1242198E+07  0.2877509E+06  0.3324983E+00  0.1200099E-01  0.1904037E-06 -0.4200963E-05
  0.1021739E+01  0.4855834E-01 -0.9468079E-02  0.7506511E+06  0.2638879E+06  0.3528671E-02 -0.1446567E+00  0.1214379E+07  0.3430977E+06 -0.3106631E-01  0.5804705E-02 -0.9798704E-06 -0.3541587E-05
  0.1065217E+01  0.3801744E-01 -0.1650810E-02  0.7349359E+06  0.3181404E+06  0.8794732E-01  0.1788885E-01  0.1175011E+07  0.3960947E+06 -0.1688080E+00 -0.1425490E-02 -0.3589014E-05 -0.1087319E-06
  0.1108696E+01 -0.2326021E+00 -0.1116409E+00  0.7110276E+06  0.3738903E+06  0.1061983E+00  0.3174882E-01  0.1126608E+07  0.4439122E+06  0.4448236E+00  0.6559062E-01  0.6934334E-05  0.4033092E-05
  0.1152174E+01 -0.1297563E+00 -0.4334259E-01  0.6794203E+06  0.4284846E+06  0.9119394E-01 -0.9020217E-01  0.1073096E+07  0.4837713E+06  0.3081018E+00  0.5079543E-01  0.2683614E-06  0.9444077E-05
  0.1195652E+01  0.2699141E-02 -0.3805733E-01  0.6419504E+06  0.4787181E+06  0.1061260E+00 -0.1086992E+00  0.1015843E+07  0.5110036E+06  0.3342749E+00  0.1093839E+00  0.7515063E-05 -0.1726672E-05
  0.1239130E+01  0.4847759E-01 -0.2718353E-01  0.5999641E+06  0.5222499E+06  0.7675479E-01 -0.9823313E-01  0.9580098E+06  0.5239153E+06  0.2134775E+00  0.3082477E-01  0.1450576E-06  0.9851065E-05
  0.1282609E+01  0.4342288E-03 -0.5051041E-01  0.5556302E+06  0.5575326E+06  0.6617810E-01 -0.6574580E-01  0.9031494E+06  0.5222498E+06  0.2246829E+00  0.6284125E-01  0.2272742E-05  0.2115965E-05
  0.1326087E+01 -0.1530669E-01 -0.5033875E-01  0.5110997E+06  0.5832275E+06  0.5022448E-01 -0.5354147E-01  0.8540860E+06  0.5067371E+06  0.2071930E+00  0.4996149E-01  0.4201914E-05  0.4719943E-05
  0.1369565E+01 -0.2804275E-01 -0.5503464E-01  0.4684027E+06  0.5996486E+06  0.3580927E-01 -0.2904491E-01  0.8124243E+06  0.4791614E+06  0.1884481E+00 -0.3971934E-02  0.2533730E-05  0.9126961E-06
  0.1413043E+01  0.9348828E-02 -0.3780365E-01  0.4284302E+06  0.6069394E+06  0.4157399E-01 -0.1751275E-01  0.7789825E+06  0.4416551E+06  0.1426145E+00 -0.9067804E-02  0.2972496E-06 -0.6190035E-05
  0.1456522E+01 -0.1460380E-01 -0.3204346E-03  0.3924004E+06  0.6061042E+06  0.5565053E-01  0.3797494E-02  0.7536469E+06  0.3960422E+06  0.1912296E+00 -0.4138760E-03  0.3954145E-05 -0.9767711E-05
  0.1500000E+01 -0.6444804E-01 -0.3127766E-01  0.3607742E+06  0.5987064E+06  0.3971869E-01  0.6150622E-02  0.7364707E+06  0.3463384E+06  0.3084967E+00  0.2889530E-01  0.3352761E-06  0.6367220E-05
Zone t="Motion of body    1 in DoF   3",I=    24,F=POINT
  0.5000000E+00 -0.1590271E+00  0.2082825E-02  0.5977249E-01 -0.1580715E-02  0.2543574E+06  0.1826184E+05 -0.5159764E+00  0.4135504E-02  0.9924316E-01  0.2823114E-02 -0.5016536E-02 -0.1742682E-02
  0.5434783E+00 -0.1783398E+00 -0.4043579E-02  0.1284590E+00 -0.8644581E-02  0.2505706E+06  0.2045401E+05 -0.5071319E+00 -0.1489250E-01  0.1389525E+00 -0.8661032E-02 -0.4759062E-02 -0.2006000E-02
  0.5869565E+00 -0.2048521E+00 -0.6477356E-02  0.8263949E-01  0.6344318E-02  0.2473220E+06  0.2207116E+05 -0.5763459E+00  0.3458934E-01  0.3562164E-01  0.6440163E-02 -0.4451487E-02 -0.2270868E-02
  0.6304348E+00 -0.2108859E+00 -0.6248474E-02  0.6748114E-01 -0.4253387E-02  0.2429463E+06  0.2397889E+05 -0.5943202E+00  0.2061129E-02  0.2187400E-01  0.4382133E-03 -0.4102373E-02 -0.2546102E-02
  0.6739131E+00 -0.1716043E+00 -0.1087189E-01  0.7065459E-01  0.2598763E-03  0.2390291E+06  0.2484702E+05 -0.6098769E+00  0.2454719E-01  0.8590685E-01  0.1929045E-02 -0.3700541E-02 -0.2792455E-02
  0.7173913E+00 -0.1627567E+00 -0.6004333E-02  0.9095909E-01 -0.2178192E-02  0.2353014E+06  0.2541513E+05 -0.6941614E+00 -0.3273219E-02  0.6821234E-01  0.1849437E-01 -0.3280938E-02 -0.3006332E-02
  0.7608696E+00 -0.1237357E+00 -0.7881165E-02  0.5685174E-01 -0.1705313E-01  0.2313477E+06  0.2563935E+05 -0.6649857E+00  0.1337768E-01  0.1068223E+00 -0.2861738E-02 -0.2857136E-02 -0.3173228E-02
  0.8043478E+00 -0.1731048E+00 -0.1438904E-01  0.3422969E-01 -0.1458931E-01  0.2294649E+06  0.2498213E+05 -0.6172519E+00 -0.1875691E-01  0.3834390E-01  0.2255654E-01 -0.2448949E-02 -0.3272198E-02
  0.8478261E+00 -0.1344237E+00 -0.2297974E-01  0.4216150E-01  0.2642155E-02  0.2258961E+06  0.2400713E+05 -0.7742482E+00  0.3930221E-01 -0.2816616E-01  0.3628993E-01 -0.2064137E-02 -0.3326260E-02
  0.8913044E+00 -0.4139523E-01 -0.1627350E-01 -0.2769098E-01 -0.1955652E-01  0.2240193E+06  0.2252293E+05 -0.7422643E+00 -0.1270777E-01  0.1848619E+00 -0.2652645E-02 -0.1719155E-02 -0.3324842E-02
  0.9347826E+00  0.1713952E-02 -0.1222992E-01 -0.2769053E-01 -0.1069164E-01  0.2240116E+06  0.2101845E+05 -0.7784386E+00  0.3749877E-03 -0.2538282E-02  0.1705647E-02 -0.1429772E-02 -0.3257865E-02
  0.9782609E+00 -0.4211426E-01 -0.2153015E-01 -0.1302481E+00 -0.5731201E-01  0.2219995E+06  0.1873916E+05 -0.5551717E+00 -0.4156813E-01  0.1048411E+00  0.2560258E-01 -0.1183477E-02 -0.3163371E-02
  0.1021739E+01 -0.6045338E-01 -0.2479553E-01 -0.9630371E-01 -0.3930664E-01  0.2214906E+06  0.1663235E+05 -0.3683213E+00 -0.4185389E-01  0.5387116E-01  0.1374197E-01 -0.9757613E-03 -0.3024887E-02
  0.1065217E+01 -0.1829249E-01 -0.4325867E-02 -0.3868264E-01 -0.1461411E-01  0.2223595E+06  0.1501193E+05 -0.1722399E+00 -0.1990747E-01  0.1351130E+00 -0.7015824E-02 -0.8249120E-03 -0.2848172E-02
  0.1108696E+01 -0.2126357E-01 -0.1310349E-01 -0.8378722E-01 -0.3988528E-01  0.2225482E+06  0.1272139E+05 -0.2068686E+00 -0.4679975E-01  0.5453520E-01  0.1639128E-01 -0.7230826E-03 -0.2661274E-02
  0.1152174E+01 -0.1573325E-01 -0.2994537E-02 -0.6331541E-01 -0.5012798E-01  0.2225386E+06  0.1044496E+05  0.1678197E-02 -0.5421016E-01  0.3013884E-01  0.1286244E-01 -0.6447335E-03 -0.2456500E-02
  0.1195652E+01  0.2770608E-01  0.8411407E-02 -0.4510374E-01 -0.1991034E-01  0.2234871E+06  0.8817410E+04 -0.1397727E-01 -0.2708445E-01 -0.2673618E-02 -0.1744401E-01 -0.6027349E-03 -0.2240416E-02
  0.1239130E+01  0.3186893E-01  0.1234818E-01 -0.7874107E-01 -0.4754210E-01  0.2248759E+06  0.8152890E+04  0.4317194E-01 -0.4664100E-01 -0.1196624E+00 -0.2751529E-02 -0.6122153E-03 -0.2017496E-02
  0.1282609E+01  0.2008160E-01  0.2269745E-01 -0.9849411E-01 -0.4339933E-01  0.2257713E+06  0.6105442E+04  0.4204101E-01 -0.6229648E-01 -0.9845098E-01 -0.2644747E-01 -0.6296847E-03 -0.1812705E-02
  0.1326087E+01 -0.4878810E-02  0.1502228E-01 -0.8747626E-01 -0.4464078E-01  0.2264797E+06  0.4436116E+04  0.1381716E+00 -0.3763093E-01 -0.1501529E+00 -0.6398082E-02 -0.6651932E-03 -0.1607597E-02
  0.1369565E+01  0.1515222E-02  0.1881981E-01 -0.9866213E-01 -0.4962134E-01  0.2274518E+06  0.3476352E+04  0.2751401E+00 -0.3877451E-01 -0.2013073E+00 -0.1614133E-01 -0.7181322E-03 -0.1408399E-02
  0.1413043E+01 -0.2570050E-02  0.1764774E-01 -0.8435678E-01 -0.4371125E-01  0.2284169E+06  0.3248788E+04  0.2635881E+00 -0.3588966E-01 -0.1675149E+00 -0.1277494E-01 -0.7845070E-03 -0.1222785E-02
  0.1456522E+01 -0.6872375E-02  0.1196003E-01 -0.9228600E-01 -0.4878873E-01  0.2292752E+06  0.2766426E+04  0.2578679E+00 -0.3621198E-01 -0.2198479E+00 -0.3601164E-02 -0.8557884E-03 -0.1061937E-02
  0.1500000E+01 -0.1816813E-01 -0.1739502E-02 -0.5391566E-01 -0.3731304E-01  0.2300921E+06  0.1699765E+04  0.3162845E+00 -0.1810256E-01 -0.2181040E+00  0.7468164E-03 -0.9325991E-03 -0.9146471E-03
Zone t="Motion of body    1 in DoF   4",I=    24,F=POINT
  0.5000000E+00 -0.2543335E+00 -0.1143098E-02  0.1197961E+07  0.7073994E+04 -0.3551846E+01 -0.5847660E+00  0.4954730E+07  0.1246886E+05  0.1622227E+01  0.7857054E-02  0.6694347E-05 -0.4286019E-05
  0.5434783E+00 -0.4608001E+00 -0.1284093E-01  0.1208660E+07  0.1110656E+05 -0.3724540E+01 -0.6850951E+00  0.4968647E+07  0.1932093E+05  0.1540349E+01  0.1358269E-01 -0.1205712E-04  0.5498412E-05
  0.5869565E+00 -0.8450148E+00 -0.1635122E-01  0.1221320E+07  0.1707429E+05 -0.3903112E+01 -0.7848221E+00  0.4986799E+07  0.2917098E+05  0.1834309E+01  0.1524946E-01  0.4702972E-05 -0.2571382E-05
  0.6304348E+00 -0.1076999E+01 -0.2862656E-01  0.1237065E+07  0.2606841E+05 -0.3715992E+01 -0.8207104E+00  0.5003098E+07  0.4389343E+05  0.2624837E+01  0.3147714E-01 -0.6473398E-05 -0.2488086E-05
  0.6739131E+00 -0.9798243E+00 -0.3999662E-01  0.1250730E+07  0.3868340E+05 -0.3231449E+01 -0.6751860E+00  0.5018366E+07  0.6368729E+05  0.2757758E+01  0.7740983E-01 -0.1114691E-04  0.1427846E-04
  0.7173913E+00 -0.7337558E+00 -0.4310036E-01  0.1263154E+07  0.5622167E+05 -0.2844203E+01 -0.5716650E+00  0.5030257E+07  0.9046762E+05  0.3290101E+01  0.7991932E-01  0.5148690E-05  0.7420778E-05
  0.7608696E+00 -0.4401441E+00 -0.2232313E-01  0.1276335E+07  0.7972514E+05 -0.2121705E+01 -0.3482440E+00  0.5041016E+07  0.1255236E+06  0.3008125E+01 -0.3807374E-01 -0.7946363E-05 -0.5016685E-05
  0.8043478E+00 -0.6321882E-01  0.2709436E-01  0.1286807E+07  0.1092659E+06 -0.2051398E+01 -0.2609102E+00  0.5046038E+07  0.1677204E+06  0.3025566E+01 -0.3154715E-01 -0.7056002E-05 -0.6804010E-05
  0.8478261E+00 -0.3480185E+00 -0.2303219E-01  0.1289600E+07  0.1460554E+06 -0.2517075E+01 -0.2711423E+00  0.5035261E+07  0.2179799E+06  0.2987494E+01  0.2566896E-01  0.2897798E-05  0.1422572E-04
  0.8913044E+00 -0.4024993E+00 -0.9065342E-01  0.1286229E+07  0.1895428E+06 -0.2259575E+01 -0.2358927E+00  0.5018836E+07  0.2740507E+06  0.2248405E+01  0.1078062E+00  0.8083334E-05  0.1221267E-04
  0.9347826E+00 -0.8598328E+00 -0.1557941E+00  0.1275313E+07  0.2388278E+06 -0.2449770E+01 -0.4530940E+00  0.4992470E+07  0.3338875E+06  0.3279568E+01  0.1809921E+00 -0.1440648E-05 -0.2041925E-05
  0.9782609E+00 -0.4812256E+00 -0.1304836E+00  0.1256203E+07  0.2930752E+06 -0.1300280E+01 -0.4437023E+00  0.4950172E+07  0.3955904E+06  0.1259482E+01  0.1607051E+00 -0.5458875E-05  0.1044502E-04
  0.1021739E+01 -0.2910663E+00 -0.1409168E+00  0.1227919E+07  0.3491252E+06  0.3216615E-01 -0.1146809E+00  0.4898703E+07  0.4536882E+06  0.1678704E+00  0.1167817E+00  0.1735510E-05 -0.3547873E-05
  0.1065217E+01  0.2183926E+00  0.3300858E-01  0.1187739E+07  0.4030286E+06  0.5381874E+00  0.3102792E+00  0.4837636E+07  0.5014529E+06 -0.7584141E+00 -0.7715239E-01  0.3049569E-05  0.8760951E-05
  0.1108696E+01 -0.4672342E+00 -0.7481384E-01  0.1138480E+07  0.4517809E+06  0.5559940E+00  0.4892556E+00  0.4766084E+07  0.5351329E+06  0.1855425E+01  0.8540262E-01 -0.7896152E-06 -0.1171231E-04
  0.1152174E+01 -0.5103109E+00 -0.8401299E-01  0.1084258E+07  0.4921607E+06  0.4556123E+00  0.2706751E+00  0.4694866E+07  0.5544142E+06  0.1692704E+01  0.8002038E-01  0.7510887E-05 -0.4125759E-06
  0.1195652E+01 -0.4833824E+00 -0.1483612E+00  0.1026185E+07  0.5198718E+06  0.5176218E+00  0.2877999E+00  0.4629025E+07  0.5537254E+06  0.1223505E+01  0.2118547E+00  0.9873646E-05  0.6232876E-05
  0.1239130E+01 -0.3774523E+00 -0.1720982E+00  0.9671868E+06  0.5330232E+06  0.7669201E+00  0.2159760E+00  0.4569362E+07  0.5329686E+06  0.1060507E+01  0.2125440E+00 -0.3848161E-05 -0.8473638E-05
  0.1282609E+01 -0.3893308E+00 -0.2048798E+00  0.9114346E+06  0.5315159E+06  0.1127777E+01  0.2205100E+00  0.4516520E+07  0.4933087E+06  0.1113710E+01  0.1812911E+00 -0.6157462E-06  0.4322734E-05
  0.1326087E+01 -0.3492952E+00 -0.5944061E-01  0.8618779E+06  0.5160659E+06  0.1022292E+01  0.1579277E+00  0.4478057E+07  0.4426154E+06  0.1070974E+01  0.7322495E-01 -0.2758669E-05 -0.8433592E-05
  0.1369565E+01 -0.3632188E+00 -0.7413864E-01  0.8196075E+06  0.4883283E+06  0.1172188E+01  0.1643309E+00  0.4455543E+07  0.3846100E+06  0.1011512E+01  0.3825764E-01  0.3318465E-06  0.1625158E-06
  0.1413043E+01 -0.3815661E+00 -0.6727314E-01  0.7854894E+06  0.4502291E+06  0.1263941E+01  0.1492721E+00  0.4445673E+07  0.3213353E+06  0.6549950E+00  0.4008847E-01  0.1579180E-05 -0.2995832E-05
  0.1456522E+01 -0.3840778E+00 -0.1063099E+00  0.7595093E+06  0.4040644E+06  0.1336571E+01  0.1264213E+00  0.4443885E+07  0.2525360E+06  0.1001830E+01  0.7437178E-01  0.6752227E-06  0.5581882E-05
  0.1500000E+01 -0.4287618E+00 -0.2342739E+00  0.7420165E+06  0.3540186E+06  0.1219869E+01  0.8099431E-01  0.4450974E+07  0.1886578E+06  0.8667902E+00  0.1329680E+00  0.6002685E-05 -0.2877554E-05
Zone t="Motion of body    1 in DoF   5",I=    24,F=POINT
  0.5000000E+00 -0.1197961E+07 -0.7073983E+04 -0.6327820E+00 -0.3675818E-02 -0.3249664E+00 -0.3395351E-01 -0.6879610E+00 -0.5852444E-02  0.4954726E+07  0.1246885E+05 -0.8642673E-05  0.1142966E-05
  0.5434783E+00 -0.1208659E+07 -0.1110657E+05 -0.2077075E+00 -0.3127515E-02 -0.5280952E+00 -0.8074489E-01 -0.3004453E+00 -0.6221895E-02  0.4968650E+07  0.1932092E+05  0.1431227E-04  0.1713634E-06
  0.5869565E+00 -0.1221320E+07 -0.1707427E+05  0.2715330E-01  0.3770590E-03 -0.9771223E+00 -0.1864475E+00  0.1123923E+00  0.1674858E-01  0.4986800E+07  0.2917093E+05 -0.1507998E-04 -0.9946525E-06
  0.6304348E+00 -0.1237065E+07 -0.2606842E+05  0.2811490E+00  0.2796888E-02 -0.1331281E+01 -0.2943127E+00  0.1001691E+01  0.2912901E-01  0.5003098E+07  0.4389345E+05 -0.4774538E-05 -0.1179520E-05
  0.6739131E+00 -0.1250730E+07 -0.3868342E+05  0.3600316E+00 -0.3783464E-02 -0.1198994E+01 -0.3169321E+00  0.1258773E+01  0.3748078E-01  0.5018365E+07  0.6368730E+05  0.1622977E-04 -0.2734363E-05
  0.7173913E+00 -0.1263155E+07 -0.5622168E+05  0.1146869E+00 -0.1559877E-01 -0.9568205E+00 -0.2716376E+00  0.1047171E+01 -0.2139835E-01  0.5030256E+07  0.9046767E+05  0.3198783E-05  0.1220964E-05
  0.7608696E+00 -0.1276334E+07 -0.7972508E+05 -0.8923209E-01 -0.1441908E-01 -0.7681590E+00 -0.2702953E+00  0.6940310E+00  0.1072164E-01  0.5041018E+07  0.1255235E+06 -0.1519748E-04 -0.8493662E-06
  0.8043478E+00 -0.1286807E+07 -0.1092660E+06 -0.4887341E+00 -0.8405685E-01 -0.1490117E+01 -0.3320057E+00  0.1617142E+01 -0.7423209E-01  0.5046037E+07  0.1677205E+06 -0.1107841E-04  0.6016344E-06
  0.8478261E+00 -0.1289600E+07 -0.1460556E+06 -0.1460681E+00 -0.6693745E-01 -0.1496839E+01 -0.3652685E+00  0.1600319E+01 -0.6024433E-01  0.5035260E+07  0.2179802E+06 -0.7416957E-05 -0.3265217E-05
  0.8913044E+00 -0.1286231E+07 -0.1895430E+06  0.8813179E-01 -0.8182526E-02 -0.2905819E+00 -0.1630219E+00  0.1023236E+01  0.1423841E-01  0.5018839E+07  0.2740508E+06  0.7891073E-05 -0.5029142E-06
  0.9347826E+00 -0.1275314E+07 -0.2388279E+06  0.3578732E+00  0.1796818E-01  0.9375727E-01 -0.7845533E-01  0.1842115E+01  0.1337539E-01  0.4992470E+07  0.3338874E+06 -0.2231709E-06  0.4433095E-05
  0.9782609E+00 -0.1256202E+07 -0.2930753E+06 -0.1359043E+00 -0.7243156E-01  0.2830760E+00  0.1413864E+00 -0.4565722E+00 -0.6000482E-01  0.4950170E+07  0.3955908E+06  0.2638234E-04 -0.9089708E-06
  0.1021739E+01 -0.1227918E+07 -0.3491253E+06 -0.6063259E-02 -0.4648590E-01  0.3028829E-01  0.6615758E-02 -0.4008402E+00  0.6882135E-01  0.4898701E+07  0.4536882E+06  0.2114697E-04  0.3065914E-05
  0.1065217E+01 -0.1187740E+07 -0.4030287E+06 -0.1079644E+00  0.4234123E-01  0.4259987E+00  0.1523408E+00 -0.2837410E+00  0.7045243E-02  0.4837634E+07  0.5014528E+06 -0.2965636E-05  0.1847744E-05
  0.1108696E+01 -0.1138481E+07 -0.4517811E+06  0.7073817E+00  0.1826019E+00 -0.1854179E+00 -0.2711476E+00  0.2686039E+01  0.2303150E+00  0.4766086E+07  0.5351332E+06  0.6451324E-05  0.3211200E-05
  0.1152174E+01 -0.1084259E+07 -0.4921608E+06  0.5304542E+00  0.1785717E+00 -0.2697646E+00 -0.2225951E+00  0.1811814E+01  0.2522165E+00  0.4694868E+07  0.5544142E+06 -0.2534884E-05  0.1043081E-05
  0.1195652E+01 -0.1026185E+07 -0.5198715E+06  0.7708314E+00  0.2312222E+00 -0.4912055E-01 -0.2076864E+00  0.1942952E+01  0.3277568E+00  0.4629023E+07  0.5537254E+06  0.5184521E-05 -0.1158565E-04
  0.1239130E+01 -0.9671862E+06 -0.5330229E+06  0.7615048E+00  0.4119110E+00 -0.1385907E+00 -0.1580983E+00  0.2144012E+01  0.4339238E+00  0.4569362E+07  0.5329682E+06 -0.7503913E-05 -0.8784235E-05
  0.1282609E+01 -0.9114339E+06 -0.5315155E+06  0.5655087E+00  0.3779297E+00 -0.2098545E+00 -0.1095619E+00  0.1439729E+01  0.3399380E+00  0.4516517E+07  0.4933081E+06  0.7946611E-05  0.3032386E-05
  0.1326087E+01 -0.8618772E+06 -0.5160655E+06  0.4185421E+00  0.2899380E+00 -0.5677571E+00 -0.1362801E+00  0.8999408E+00  0.2715575E+00  0.4478058E+07  0.4426152E+06  0.9349134E-05 -0.5561858E-05
  0.1369565E+01 -0.8196069E+06 -0.4883278E+06  0.6226783E+00  0.3697090E+00 -0.6127514E+00 -0.1249855E+00  0.1697852E+01  0.1835578E+00  0.4455541E+07  0.3846098E+06  0.8878255E-05 -0.2786517E-05
  0.1413043E+01 -0.7854888E+06 -0.4502283E+06  0.6672844E+00  0.4123974E+00 -0.4818574E+00 -0.8520406E-01  0.1490052E+01  0.3429697E+00  0.4445674E+07  0.3213346E+06 -0.1855998E-05 -0.3729016E-05
  0.1456522E+01 -0.7595088E+06 -0.4040640E+06  0.4651634E+00  0.4085360E+00 -0.4566096E+00 -0.6091428E-01  0.1064281E+01  0.2266073E+00  0.4443883E+07  0.2525355E+06  0.2623138E-04  0.3688037E-06
  0.1500000E+01 -0.7420161E+06 -0.3540179E+06  0.6696065E+00  0.6581593E+00 -0.5848210E+00 -0.4330376E-01  0.1443804E+01  0.3406096E+00  0.4450973E+07  0.1886575E+06  0.6755193E-06 -0.2106652E-05
Zone t="Motion of body    1 in DoF   6",I=    24,F=POINT
  0.5000000E+00  0.3842637E-05 -0.3775313E-08  0.4198519E-05  0.5245056E-08 -0.5369020E-02 -0.1829241E-02 -0.1365021E-06  0.2078296E-06 -0.6527603E-05  0.1509510E-06  0.7067612E-02  0.1488865E-08
  0.5434783E+00  0.4887283E-05  0.1570970E-07 -0.6129666E-05  0.1795797E-08 -0.5102204E-02 -0.2104201E-02 -0.1445808E-04  0.3264464E-07 -0.9610697E-05 -0.2562772E-06  0.7067978E-02  0.2465471E-08
  0.5869565E+00  0.2122684E-04  0.1679837E-06  0.6356807E-05 -0.4288177E-07 -0.4766507E-02 -0.2378617E-02  0.1131402E-05 -0.2031126E-06 -0.2751971E-04 -0.5269737E-07  0.7068249E-02  0.2708760E-09
  0.6304348E+00  0.2300257E-04  0.4728063E-06  0.3709887E-05 -0.8693110E-07 -0.4402018E-02 -0.2666374E-02  0.3056883E-05 -0.2143877E-07 -0.3639307E-04 -0.6801421E-06  0.7068566E-02 -0.2666947E-08
  0.6739131E+00  0.1833864E-05 -0.3097921E-07  0.2548684E-05 -0.1208867E-06 -0.3980130E-02 -0.2924824E-02  0.8936508E-05 -0.2258014E-06 -0.7623204E-05 -0.8359077E-06  0.7067736E-02  0.1418963E-07
  0.7173913E+00  0.5841932E-05  0.3598652E-06  0.5119805E-05 -0.6241811E-07 -0.3544116E-02 -0.3150988E-02  0.7607362E-05 -0.6572870E-06 -0.1561585E-04 -0.5278392E-06  0.7066641E-02  0.5615144E-07
  0.7608696E+00  0.6205801E-06  0.1440276E-07  0.3046060E-05  0.2058020E-06 -0.3104576E-02 -0.3326857E-02  0.9462114E-05  0.3289143E-06  0.5250563E-05  0.3991436E-06  0.7069591E-02  0.1741852E-07
  0.8043478E+00 -0.8533432E-06  0.3282448E-06 -0.1074466E-04 -0.7852730E-06 -0.2660481E-02 -0.3423888E-02 -0.1312270E-04 -0.7833535E-06  0.6149843E-05  0.5731898E-06  0.7069133E-02 -0.6312095E-07
  0.8478261E+00 -0.7593813E-05 -0.3335917E-06  0.4875136E-05  0.2842859E-06 -0.2269559E-02 -0.3493320E-02  0.1063359E-04 -0.2292140E-07  0.1119413E-04  0.1252344E-05  0.7068299E-02  0.5033734E-07
  0.8913044E+00 -0.3744916E-05 -0.7260314E-06 -0.2167642E-05 -0.3527243E-06 -0.1910438E-02 -0.3486610E-02  0.1790247E-04 -0.1400259E-05 -0.8987221E-06  0.1771887E-05  0.7068718E-02 -0.9598209E-07
  0.9347826E+00  0.4926696E-05  0.6837508E-06  0.1174518E-04  0.1946078E-05 -0.1597301E-02 -0.3416943E-02  0.2316194E-04  0.3485638E-05 -0.1345767E-04 -0.1088189E-05  0.7065698E-02 -0.9133019E-06
  0.9782609E+00  0.1599391E-06 -0.2015149E-06  0.1603616E-05  0.1486909E-05 -0.1343260E-02 -0.3317491E-02  0.1838889E-04  0.2859329E-05  0.2606024E-05  0.3881472E-06  0.7071957E-02  0.5355116E-06
  0.1021739E+01  0.2369919E-06  0.1068901E-05  0.3703055E-05  0.1683531E-05 -0.1127516E-02 -0.3173256E-02  0.5865400E-05  0.2111555E-05 -0.3212216E-06 -0.2044135E-05  0.7071797E-02 -0.2447639E-06
  0.1065217E+01  0.1771076E-04  0.2887261E-05  0.8762266E-05  0.1978525E-05 -0.9684625E-03 -0.3001405E-02  0.1714214E-04  0.2338077E-05 -0.3013485E-04 -0.4184618E-05  0.7071759E-02  0.3181543E-06
  0.1108696E+01 -0.3561669E-06  0.1171829E-06 -0.4050453E-05 -0.9772264E-06 -0.8613328E-03 -0.2801230E-02 -0.4000011E-05 -0.9812399E-06  0.6357151E-06 -0.1392262E-05  0.7067215E-02 -0.1341285E-05
  0.1152174E+01  0.9526831E-05  0.4794709E-05 -0.1170252E-04 -0.5368062E-05 -0.7768558E-03 -0.2596750E-02 -0.2288714E-05 -0.6943123E-05  0.1787938E-05 -0.3907559E-05  0.7072428E-02  0.1080731E-05
  0.1195652E+01  0.2241745E-04  0.1640811E-04  0.1177607E-04  0.4555439E-05 -0.7399206E-03 -0.2371559E-02  0.1668144E-04  0.5583688E-05 -0.1739983E-05 -0.1437647E-04  0.7068827E-02 -0.1359462E-05
  0.1239130E+01 -0.2301381E-05  0.1834683E-05 -0.9409956E-06  0.5607937E-06 -0.7324489E-03 -0.2136724E-02 -0.3872107E-05  0.1166746E-05  0.1184205E-05  0.3519891E-05  0.7077083E-02  0.2688271E-05
  0.1282609E+01  0.9650078E-05  0.6304858E-05 -0.6307586E-05 -0.3401181E-05 -0.7540757E-03 -0.1926058E-02 -0.6562686E-05 -0.3275280E-05  0.6591703E-05 -0.4951191E-05  0.7070848E-02 -0.3876582E-05
  0.1326087E+01  0.1428917E-04  0.1629468E-04 -0.2046791E-05 -0.8853498E-06 -0.7901843E-03 -0.1714109E-02 -0.5186602E-05 -0.7205341E-06  0.3243133E-06 -0.1562224E-04  0.7081151E-02  0.8503117E-05
  0.1369565E+01  0.8732733E-05  0.1093648E-04  0.6312564E-05  0.8318278E-05 -0.8493559E-03 -0.1505390E-02  0.1358088E-04  0.6170287E-05  0.1438504E-04 -0.1036919E-04  0.7071175E-02 -0.6956941E-05
  0.1413043E+01 -0.7330400E-05 -0.5197536E-05 -0.5748089E-06  0.4944629E-05 -0.9129979E-03 -0.1314684E-02  0.3658867E-06  0.3519777E-05  0.1071831E-04  0.5261520E-06  0.7077366E-02  0.7160550E-05
  0.1456522E+01 -0.1089436E-04 -0.1279054E-04 -0.4717926E-05 -0.5941083E-05 -0.9836480E-03 -0.1148276E-02 -0.1040258E-04 -0.3740278E-05  0.1796562E-04  0.7354565E-05  0.7071258E-02 -0.1079524E-05
  0.1500000E+01 -0.1685942E-04 -0.2017543E-04 -0.2942203E-05 -0.6264154E-05 -0.1062054E-02 -0.9943419E-03  0.7442201E-05 -0.2800199E-05  0.2564128E-04  0.1008903E-04  0.7070638E-02 -0.6863324E-05
