VARIABLES="w (rad/s)"
"abs(F   1   1)" "angle(F   1   1)"
"abs(F   1   2)" "angle(F   1   2)"
"abs(F   1   3)" "angle(F   1   3)"
"abs(F   1   4)" "angle(F   1   4)"
"abs(F   1   5)" "angle(F   1   5)"
"abs(F   1   6)" "angle(F   1   6)"
"abs(F   2   7)" "angle(F   2   7)"
"abs(F   2   8)" "angle(F   2   8)"
"abs(F   2   9)" "angle(F   2   9)"
"abs(F   2  10)" "angle(F   2  10)"
"abs(F   2  11)" "angle(F   2  11)"
"abs(F   2  12)" "angle(F   2  12)"
"abs(F   3  13)" "angle(F   3  13)"
"abs(F   3  14)" "angle(F   3  14)"
"abs(F   3  15)" "angle(F   3  15)"
"abs(F   3  16)" "angle(F   3  16)"
"abs(F   3  17)" "angle(F   3  17)"
"abs(F   3  18)" "angle(F   3  18)"
"abs(F   4  19)" "angle(F   4  19)"
"abs(F   5  20)" "angle(F   5  20)"
Zone t="FKforce - beta =   0.000",I=     5,F=POINT
  0.5236000E+00  0.6994417E+06 -0.6505283E+00  0.1970879E+00 -0.2532287E+01  0.8813419E+06  0.9202443E+00  0.1410147E+09 -0.2221348E+01  0.5307977E+08 -0.2308023E+01  0.1119119E+09 -0.6505528E+00  0.6994417E+06 -0.6505283E+00  0.1970879E+00 -0.2532287E+01  0.8813419E+06  0.9202443E+00  0.5288052E+08 -0.2221349E+01  0.5307977E+08 -0.2308023E+01  0.4196688E+08 -0.6505525E+00  0.6994417E+06 -0.6505283E+00  0.1970879E+00 -0.2532287E+01  0.8813419E+06  0.9202443E+00  0.3525370E+08  0.9202437E+00  0.5307977E+08 -0.2308023E+01  0.2797789E+08  0.2491040E+01  0.7645424E+07 -0.6505576E+00  0.7645424E+07 -0.6505576E+00
  0.5890500E+00  0.7904143E+06 -0.4566396E+00  0.1111031E+00 -0.1153353E+01  0.7560448E+06  0.1114144E+01  0.1209672E+09 -0.2027449E+01  0.4563737E+08 -0.2137207E+01  0.1264654E+09 -0.4566492E+00  0.7904143E+06 -0.4566396E+00  0.1111031E+00 -0.1153353E+01  0.7560448E+06  0.1114144E+01  0.4536271E+08 -0.2027449E+01  0.4563737E+08 -0.2137207E+01  0.4742470E+08 -0.4566461E+00  0.7904143E+06 -0.4566396E+00  0.1111031E+00 -0.1153353E+01  0.7560448E+06  0.1114144E+01  0.3024180E+08  0.1114144E+01  0.4563737E+08 -0.2137207E+01  0.3161655E+08  0.2684937E+01  0.8833041E+07 -0.4566461E+00  0.8833041E+07 -0.4566461E+00
  0.6545000E+00  0.8817242E+06 -0.2304209E+00  0.2195128E-01  0.2655561E+01  0.6347940E+06  0.1340401E+01  0.1015669E+09 -0.1801192E+01  0.3845925E+08 -0.1940330E+01  0.1410748E+09 -0.2303976E+00  0.8817242E+06 -0.2304209E+00  0.2195128E-01  0.2655561E+01  0.6347940E+06  0.1340401E+01  0.3808759E+08 -0.1801192E+01  0.3845925E+08 -0.1940330E+01  0.5290305E+08 -0.2303933E+00  0.8817242E+06 -0.2304209E+00  0.2195128E-01  0.2655561E+01  0.6347940E+06  0.1340401E+01  0.2539172E+08  0.1340400E+01  0.3845925E+08 -0.1940330E+01  0.3526871E+08  0.2911198E+01  0.1009628E+08 -0.2304233E+00  0.1009628E+08 -0.2304233E+00
  0.7199500E+00  0.9710652E+06  0.2966767E-01  0.1164992E+00  0.1543288E+01  0.5228671E+06  0.1600458E+01  0.8365870E+08 -0.1541135E+01  0.3186499E+08 -0.1717259E+01  0.1553696E+09  0.2966108E-01  0.9710652E+06  0.2966767E-01  0.1164992E+00  0.1543288E+01  0.5228671E+06  0.1600458E+01  0.3137200E+08 -0.1541135E+01  0.3186499E+08 -0.1717259E+01  0.5826364E+08  0.2966067E-01  0.9710652E+06  0.2966767E-01  0.1164992E+00  0.1543288E+01  0.5228671E+06  0.1600458E+01  0.2091467E+08  0.1600458E+01  0.3186499E+08 -0.1717259E+01  0.3884243E+08 -0.3111929E+01  0.1141032E+08  0.2966821E-01  0.1141032E+08  0.2966821E-01
  0.7854000E+00  0.1055300E+07  0.3224626E+00  0.3272304E-01 -0.9496796E+00  0.4234684E+06  0.1893267E+01  0.6775494E+08 -0.1248325E+01  0.2604647E+08 -0.1470172E+01  0.1688463E+09  0.3224735E+00  0.1055300E+07  0.3224626E+00  0.3272304E-01 -0.9496796E+00  0.4234684E+06  0.1893267E+01  0.2540812E+08 -0.1248325E+01  0.2604647E+08 -0.1470172E+01  0.6331740E+08  0.3224713E+00  0.1055300E+07  0.3224626E+00  0.3272304E-01 -0.9496796E+00  0.4234684E+06  0.1893267E+01  0.1693875E+08  0.1893268E+01  0.2604647E+08 -0.1470172E+01  0.4221156E+08 -0.2819120E+01  0.1273651E+08  0.3224737E+00  0.1273651E+08  0.3224737E+00
