 VARIABLES="X" "Y" "Z" "abs(eta) (m)" "angle(phi) (rad)" "PRE1" "PRE2"
ZONE N=   3200 ,E =    3136 ,F=FEPOINT,ET=QUADRILATERAL
  0.1010000E+02  0.0000000E+00  0.0000000E+00  0.2900508E+00 -0.1617595E+01  0.1356906E-01  0.2897333E+00
  0.1005140E+02  0.9899730E+00  0.0000000E+00  0.2421327E+00 -0.1677200E+01  0.2571519E-01  0.2407634E+00
  0.9905930E+01  0.1970410E+01  0.0000000E+00  0.1952412E+00 -0.1787096E+01  0.4190200E-01  0.1906918E+00
  0.9665100E+01  0.2931880E+01  0.0000000E+00  0.1538969E+00 -0.1983516E+01  0.6172833E-01  0.1409747E+00
  0.9331180E+01  0.3865100E+01  0.0000000E+00  0.1259664E+00 -0.2309988E+01  0.8486234E-01  0.9309085E-01
  0.8907400E+01  0.4761110E+01  0.0000000E+00  0.1202759E+00 -0.2742679E+01  0.1108323E+00  0.4671733E-01
  0.8397840E+01  0.5611260E+01  0.0000000E+00  0.1396863E+00 -0.3126491E+01  0.1396704E+00  0.2109385E-02
  0.7807410E+01  0.6407370E+01  0.0000000E+00  0.1746959E+00  0.2912509E+01  0.1701319E+00 -0.3967084E-01
  0.7141780E+01  0.7141780E+01  0.0000000E+00  0.2154744E+00  0.2773545E+01  0.2010444E+00 -0.7752649E-01
  0.6407370E+01  0.7807410E+01  0.0000000E+00  0.2578180E+00  0.2691091E+01  0.2320951E+00 -0.1122585E+00
  0.5611260E+01  0.8397840E+01  0.0000000E+00  0.2994671E+00  0.2642179E+01  0.2628912E+00 -0.1434180E+00
  0.4761110E+01  0.8907410E+01  0.0000000E+00  0.3382850E+00  0.2612765E+01  0.2920749E+00 -0.1706722E+00
  0.3865100E+01  0.9331180E+01  0.0000000E+00  0.3724667E+00  0.2595417E+01  0.3182791E+00 -0.1934679E+00
  0.2931870E+01  0.9665100E+01  0.0000000E+00  0.4025034E+00  0.2584381E+01  0.3416179E+00 -0.2128525E+00
  0.1970410E+01  0.9905930E+01  0.0000000E+00  0.4274862E+00  0.2578316E+01  0.3614439E+00 -0.2282602E+00
  0.9899730E+00  0.1005140E+02  0.0000000E+00  0.4467935E+00  0.2575053E+01  0.3769880E+00 -0.2398010E+00
 -0.4414850E-06  0.1010000E+02  0.0000000E+00  0.4595795E+00  0.2573541E+01  0.3874029E+00 -0.2472494E+00
 -0.9899740E+00  0.1005140E+02  0.0000000E+00  0.4667586E+00  0.2572456E+01  0.3931819E+00 -0.2515385E+00
 -0.1970410E+01  0.9905930E+01  0.0000000E+00  0.4673750E+00  0.2572325E+01  0.3936680E+00 -0.2519222E+00
 -0.2931880E+01  0.9665100E+01  0.0000000E+00  0.4616632E+00  0.2572968E+01  0.3890171E+00 -0.2485932E+00
 -0.3865100E+01  0.9331180E+01  0.0000000E+00  0.4495435E+00  0.2574849E+01  0.3792590E+00 -0.2413545E+00
 -0.4761110E+01  0.8907400E+01  0.0000000E+00  0.4319759E+00  0.2577602E+01  0.3650751E+00 -0.2309184E+00
 -0.5611260E+01  0.8397840E+01  0.0000000E+00  0.4080687E+00  0.2582929E+01  0.3460277E+00 -0.2162983E+00
 -0.6407370E+01  0.7807410E+01  0.0000000E+00  0.3788362E+00  0.2592355E+01  0.3231180E+00 -0.1977667E+00
 -0.7141780E+01  0.7141780E+01  0.0000000E+00  0.3450870E+00  0.2608865E+01  0.2972664E+00 -0.1752646E+00
 -0.7807410E+01  0.6407370E+01  0.0000000E+00  0.3077441E+00  0.2634974E+01  0.2690884E+00 -0.1493248E+00
 -0.8397840E+01  0.5611260E+01  0.0000000E+00  0.2665726E+00  0.2679126E+01  0.2385704E+00 -0.1189332E+00
 -0.8907410E+01  0.4761110E+01  0.0000000E+00  0.2237494E+00  0.2753251E+01  0.2070886E+00 -0.8472372E-01
 -0.9331180E+01  0.3865100E+01  0.0000000E+00  0.1822683E+00  0.2879748E+01  0.1760556E+00 -0.4718245E-01
 -0.9665100E+01  0.2931880E+01  0.0000000E+00  0.1459391E+00  0.3095452E+01  0.1457838E+00 -0.6731331E-02
 -0.9905930E+01  0.1970410E+01  0.0000000E+00  0.1224798E+00 -0.2831604E+01  0.1166421E+00  0.3736220E-01
 -0.1005140E+02  0.9899730E+00  0.0000000E+00  0.1227898E+00 -0.2389720E+01  0.8968702E-01  0.8386638E-01
 -0.1010000E+02 -0.8829700E-06  0.0000000E+00  0.1472478E+00 -0.2035810E+01  0.6603107E-01  0.1316124E+00
 -0.1005140E+02 -0.9899740E+00  0.0000000E+00  0.1860711E+00 -0.1818162E+01  0.4555961E-01  0.1804073E+00
 -0.9905930E+01 -0.1970410E+01  0.0000000E+00  0.2322414E+00 -0.1694841E+01  0.2873444E-01  0.2304570E+00
 -0.9665100E+01 -0.2931880E+01  0.0000000E+00  0.2807488E+00 -0.1626647E+01  0.1567178E-01  0.2803110E+00
 -0.9331180E+01 -0.3865100E+01  0.0000000E+00  0.3285452E+00 -0.1590808E+01  0.6574277E-02  0.3284794E+00
 -0.8907400E+01 -0.4761110E+01  0.0000000E+00  0.3752284E+00 -0.1573522E+01  0.1022624E-02  0.3752270E+00
 -0.8397840E+01 -0.5611260E+01  0.0000000E+00  0.4203389E+00 -0.1568981E+01 -0.7632152E-03  0.4203382E+00
 -0.7807400E+01 -0.6407370E+01  0.0000000E+00  0.4627317E+00 -0.1571730E+01  0.4321740E-03  0.4627315E+00
 -0.7141780E+01 -0.7141780E+01  0.0000000E+00  0.5012866E+00 -0.1578634E+01  0.3928927E-02  0.5012712E+00
 -0.6407370E+01 -0.7807410E+01  0.0000000E+00  0.5367798E+00 -0.1588225E+01  0.9354897E-02  0.5366982E+00
 -0.5611260E+01 -0.8397850E+01  0.0000000E+00  0.5688290E+00 -0.1599952E+01  0.1658236E-01  0.5685872E+00
 -0.4761110E+01 -0.8907410E+01  0.0000000E+00  0.5970799E+00 -0.1611962E+01  0.2457229E-01  0.5965741E+00
 -0.3865100E+01 -0.9331190E+01  0.0000000E+00  0.6209057E+00 -0.1622926E+01  0.3235288E-01  0.6200622E+00
 -0.2931870E+01 -0.9665100E+01  0.0000000E+00  0.6412871E+00 -0.1632999E+01  0.3986391E-01  0.6400470E+00
 -0.1970410E+01 -0.9905930E+01  0.0000000E+00  0.6576439E+00 -0.1641959E+01  0.4675998E-01  0.6559794E+00
 -0.9899710E+00 -0.1005140E+02  0.0000000E+00  0.6700009E+00 -0.1649102E+01  0.5241149E-01  0.6679478E+00
  0.1204410E-06 -0.1010000E+02  0.0000000E+00  0.6780347E+00 -0.1653771E+01  0.5619514E-01  0.6757019E+00
  0.9899760E+00 -0.1005140E+02  0.0000000E+00  0.6826331E+00 -0.1656381E+01  0.5835136E-01  0.6801346E+00
  0.1970410E+01 -0.9905930E+01  0.0000000E+00  0.6830367E+00 -0.1656570E+01  0.5851486E-01  0.6805257E+00
  0.2931880E+01 -0.9665100E+01  0.0000000E+00  0.6794508E+00 -0.1654454E+01  0.5677497E-01  0.6770746E+00
  0.3865100E+01 -0.9331180E+01  0.0000000E+00  0.6716914E+00 -0.1650065E+01  0.5318806E-01  0.6695822E+00
  0.4761110E+01 -0.8907410E+01  0.0000000E+00  0.6604964E+00 -0.1643739E+01  0.4813567E-01  0.6587400E+00
  0.5611260E+01 -0.8397840E+01  0.0000000E+00  0.6449335E+00 -0.1635067E+01  0.4142198E-01  0.6436020E+00
  0.6407370E+01 -0.7807410E+01  0.0000000E+00  0.6253859E+00 -0.1624844E+01  0.3378393E-01  0.6244727E+00
  0.7141780E+01 -0.7141780E+01  0.0000000E+00  0.6018789E+00 -0.1613953E+01  0.2596678E-01  0.6013185E+00
  0.7807410E+01 -0.6407370E+01  0.0000000E+00  0.5749425E+00 -0.1602611E+01  0.1828841E-01  0.5746515E+00
  0.8397840E+01 -0.5611260E+01  0.0000000E+00  0.5436243E+00 -0.1590816E+01  0.1088249E-01  0.5435153E+00
  0.8907410E+01 -0.4761110E+01  0.0000000E+00  0.5086089E+00 -0.1580061E+01  0.4712055E-02  0.5085871E+00
  0.9331180E+01 -0.3865100E+01  0.0000000E+00  0.4703859E+00 -0.1572568E+01  0.8335259E-03  0.4703852E+00
  0.9665100E+01 -0.2931870E+01  0.0000000E+00  0.4293035E+00 -0.1569184E+01 -0.6921765E-03  0.4293029E+00
  0.9905930E+01 -0.1970410E+01  0.0000000E+00  0.3846708E+00 -0.1572209E+01  0.5432820E-03  0.3846704E+00
  0.1005140E+02 -0.9899690E+00  0.0000000E+00  0.3377908E+00 -0.1585848E+01  0.5084082E-02  0.3377525E+00
  0.1010000E+02  0.0000000E+00 -0.2568960E-01  0.2895845E+00 -0.1617589E+01  0.1354557E-01  0.2892675E+00
  0.1005140E+02  0.9899730E+00 -0.2568960E-01  0.2417365E+00 -0.1677167E+01  0.2566531E-01  0.2403702E+00
  0.9905930E+01  0.1970410E+01 -0.2568960E-01  0.1949232E+00 -0.1787188E+01  0.4185140E-01  0.1903773E+00
  0.9665100E+01  0.2931880E+01 -0.2568960E-01  0.1536264E+00 -0.1983540E+01  0.6162329E-01  0.1407254E+00
  0.9331180E+01  0.3865100E+01 -0.2568960E-01  0.1257466E+00 -0.2310144E+01  0.8472882E-01  0.9291521E-01
  0.8907400E+01  0.4761110E+01 -0.2568960E-01  0.1200692E+00 -0.2742996E+01  0.1106566E+00  0.4660194E-01
  0.8397840E+01  0.5611260E+01 -0.2568960E-01  0.1394757E+00 -0.3126510E+01  0.1394599E+00  0.2103574E-02
  0.7807410E+01  0.6407370E+01 -0.2568960E-01  0.1744388E+00  0.2912226E+01  0.1698703E+00 -0.3966058E-01
  0.7141780E+01  0.7141780E+01 -0.2568960E-01  0.2151614E+00  0.2773372E+01  0.2007390E+00 -0.7744858E-01
  0.6407370E+01  0.7807410E+01 -0.2568960E-01  0.2574544E+00  0.2690906E+01  0.2317470E+00 -0.1121430E+00
  0.5611260E+01  0.8397840E+01 -0.2568960E-01  0.2989931E+00  0.2642201E+01  0.2624784E+00 -0.1431852E+00
  0.4761110E+01  0.8907410E+01 -0.2568960E-01  0.3378078E+00  0.2612634E+01  0.2916406E+00 -0.1704696E+00
  0.3865100E+01  0.9331180E+01 -0.2568960E-01  0.3719282E+00  0.2595331E+01  0.3178024E+00 -0.1932154E+00
  0.2931870E+01  0.9665100E+01 -0.2568960E-01  0.4019375E+00  0.2584282E+01  0.3411166E+00 -0.2125868E+00
  0.1970410E+01  0.9905930E+01 -0.2568960E-01  0.4268011E+00  0.2578335E+01  0.3608689E+00 -0.2278876E+00
  0.9899730E+00  0.1005140E+02 -0.2568960E-01  0.4461622E+00  0.2574968E+01  0.3764350E+00 -0.2394941E+00
 -0.4414850E-06  0.1010000E+02 -0.2568960E-01  0.4589123E+00  0.2573478E+01  0.3868251E+00 -0.2469147E+00
 -0.9899740E+00  0.1005140E+02 -0.2568960E-01  0.4660991E+00  0.2572377E+01  0.3926064E+00 -0.2512142E+00
 -0.1970410E+01  0.9905930E+01 -0.2568960E-01  0.4666239E+00  0.2572344E+01  0.3930401E+00 -0.2515102E+00
 -0.2931880E+01  0.9665100E+01 -0.2568960E-01  0.4610120E+00  0.2572889E+01  0.3884486E+00 -0.2482735E+00
 -0.3865100E+01  0.9331180E+01 -0.2568960E-01  0.4488902E+00  0.2574784E+01  0.3786922E+00 -0.2410282E+00
 -0.4761110E+01  0.8907400E+01 -0.2568960E-01  0.4313660E+00  0.2577513E+01  0.3645391E+00 -0.2306250E+00
 -0.5611260E+01  0.8397840E+01 -0.2568960E-01  0.4074150E+00  0.2582949E+01  0.3454776E+00 -0.2159449E+00
 -0.6407370E+01  0.7807410E+01 -0.2568960E-01  0.3783034E+00  0.2592245E+01  0.3226418E+00 -0.1975241E+00
 -0.7141780E+01  0.7141780E+01 -0.2568960E-01  0.3445881E+00  0.2608768E+01  0.2968199E+00 -0.1750398E+00
 -0.7807410E+01  0.6407370E+01 -0.2568960E-01  0.3073105E+00  0.2634827E+01  0.2686873E+00 -0.1491538E+00
 -0.8397840E+01  0.5611260E+01 -0.2568960E-01  0.2661528E+00  0.2679150E+01  0.2381975E+00 -0.1187403E+00
 -0.8907410E+01  0.4761110E+01 -0.2568960E-01  0.2234312E+00  0.2753031E+01  0.2067756E+00 -0.8464859E-01
 -0.9331180E+01  0.3865100E+01 -0.2568960E-01  0.1820003E+00  0.2879539E+01  0.1757868E+00 -0.4714977E-01
 -0.9665100E+01  0.2931880E+01 -0.2568960E-01  0.1457140E+00  0.3095126E+01  0.1455568E+00 -0.6768342E-02
 -0.9905930E+01  0.1970410E+01 -0.2568960E-01  0.1222955E+00 -0.2831666E+01  0.1164689E+00  0.3729874E-01
 -0.1005140E+02  0.9899730E+00 -0.2568960E-01  0.1225678E+00 -0.2389915E+01  0.8954117E-01  0.8369730E-01
 -0.1010000E+02 -0.8829700E-06 -0.2568960E-01  0.1469927E+00 -0.2035878E+01  0.6592557E-01  0.1313799E+00
 -0.1005140E+02 -0.9899740E+00 -0.2568960E-01  0.1857553E+00 -0.1818145E+01  0.4547919E-01  0.1801018E+00
 -0.9905930E+01 -0.1970410E+01 -0.2568960E-01  0.2318610E+00 -0.1694915E+01  0.2870452E-01  0.2300773E+00
 -0.9665100E+01 -0.2931880E+01 -0.2568960E-01  0.2802977E+00 -0.1626617E+01  0.1563834E-01  0.2798612E+00
 -0.9331180E+01 -0.3865100E+01 -0.2568960E-01  0.3280220E+00 -0.1590805E+01  0.6562799E-02  0.3279563E+00
 -0.8907400E+01 -0.4761110E+01 -0.2568960E-01  0.3746437E+00 -0.1573508E+01  0.1016052E-02  0.3746423E+00
 -0.8397840E+01 -0.5611260E+01 -0.2568960E-01  0.4196486E+00 -0.1569020E+01 -0.7456095E-03  0.4196479E+00
 -0.7807400E+01 -0.6407370E+01 -0.2568960E-01  0.4620187E+00 -0.1571733E+01  0.4329132E-03  0.4620185E+00
 -0.7141780E+01 -0.7141780E+01 -0.2568960E-01  0.5005065E+00 -0.1578650E+01  0.3930749E-02  0.5004910E+00
 -0.6407370E+01 -0.7807410E+01 -0.2568960E-01  0.5359597E+00 -0.1588244E+01  0.9350632E-02  0.5358781E+00
 -0.5611260E+01 -0.8397850E+01 -0.2568960E-01  0.5678955E+00 -0.1599979E+01  0.1657049E-01  0.5676537E+00
 -0.4761110E+01 -0.8907410E+01 -0.2568960E-01  0.5961710E+00 -0.1611991E+01  0.2455225E-01  0.5956652E+00
 -0.3865100E+01 -0.9331190E+01 -0.2568960E-01  0.6199470E+00 -0.1622957E+01  0.3232193E-01  0.6191038E+00
 -0.2931870E+01 -0.9665100E+01 -0.2568960E-01  0.6403131E+00 -0.1633037E+01  0.3982762E-01  0.6390733E+00
 -0.1970410E+01 -0.9905930E+01 -0.2568960E-01  0.6565647E+00 -0.1641979E+01  0.4669688E-01  0.6549020E+00
 -0.9899710E+00 -0.1005140E+02 -0.2568960E-01  0.6689845E+00 -0.1649145E+01  0.5236069E-01  0.6669322E+00
  0.1204410E-06 -0.1010000E+02 -0.2568960E-01  0.6769900E+00 -0.1653809E+01  0.5613438E-01  0.6746587E+00
  0.9899760E+00 -0.1005140E+02 -0.2568960E-01  0.6815969E+00 -0.1656426E+01  0.5829385E-01  0.6790996E+00
  0.1970410E+01 -0.9905930E+01 -0.2568960E-01  0.6819165E+00 -0.1656589E+01  0.5843199E-01  0.6794084E+00
  0.2931880E+01 -0.9665100E+01 -0.2568960E-01  0.6784188E+00 -0.1654499E+01  0.5671921E-01  0.6760436E+00
  0.3865100E+01 -0.9331180E+01 -0.2568960E-01  0.6706556E+00 -0.1650102E+01  0.5313078E-01  0.6685477E+00
  0.4761110E+01 -0.8907410E+01 -0.2568960E-01  0.6594937E+00 -0.1643780E+01  0.4808970E-01  0.6577381E+00
  0.5611260E+01 -0.8397840E+01 -0.2568960E-01  0.6438754E+00 -0.1635089E+01  0.4136808E-01  0.6425451E+00
  0.6407370E+01 -0.7807410E+01 -0.2568960E-01  0.6244362E+00 -0.1624878E+01  0.3375439E-01  0.6235232E+00
  0.7141780E+01 -0.7141780E+01 -0.2568960E-01  0.6009482E+00 -0.1613981E+01  0.2594366E-01  0.6003879E+00
  0.7807410E+01 -0.6407370E+01 -0.2568960E-01  0.5740656E+00 -0.1602635E+01  0.1827464E-01  0.5737747E+00
  0.8397840E+01 -0.5611260E+01 -0.2568960E-01  0.5427320E+00 -0.1590844E+01  0.1087991E-01  0.5426229E+00
  0.8907410E+01 -0.4761110E+01 -0.2568960E-01  0.5078313E+00 -0.1580074E+01  0.4711373E-02  0.5078095E+00
  0.9331180E+01 -0.3865100E+01 -0.2568960E-01  0.4696521E+00 -0.1572581E+01  0.8382833E-03  0.4696514E+00
  0.9665100E+01 -0.2931870E+01 -0.2568960E-01  0.4286392E+00 -0.1569180E+01 -0.6927762E-03  0.4286387E+00
  0.9905930E+01 -0.1970410E+01 -0.2568960E-01  0.3840390E+00 -0.1572253E+01  0.5593657E-03  0.3840386E+00
  0.1005140E+02 -0.9899690E+00 -0.2568960E-01  0.3372599E+00 -0.1585827E+01  0.5068967E-02  0.3372218E+00
  0.1010000E+02  0.0000000E+00 -0.1027320E+00  0.2882017E+00 -0.1617433E+01  0.1343586E-01  0.2878884E+00
  0.1005140E+02  0.9899730E+00 -0.1027320E+00  0.2405500E+00 -0.1677083E+01  0.2551911E-01  0.2391926E+00
  0.9905930E+01  0.1970410E+01 -0.1027320E+00  0.1939556E+00 -0.1787176E+01  0.4164135E-01  0.1894327E+00
  0.9665100E+01  0.2931880E+01 -0.1027320E+00  0.1528390E+00 -0.1983540E+01  0.6130745E-01  0.1400041E+00
  0.9331180E+01  0.3865100E+01 -0.1027320E+00  0.1250577E+00 -0.2310468E+01  0.8429460E-01  0.9237889E-01
  0.8907400E+01  0.4761110E+01 -0.1027320E+00  0.1194579E+00 -0.2743652E+01  0.1101236E+00  0.4629244E-01
  0.8397840E+01  0.5611260E+01 -0.1027320E+00  0.1388125E+00 -0.3126982E+01  0.1387977E+00  0.2028078E-02
  0.7807410E+01  0.6407370E+01 -0.1027320E+00  0.1736364E+00  0.2911664E+01  0.1690667E+00 -0.3957318E-01
  0.7141780E+01  0.7141780E+01 -0.1027320E+00  0.2142221E+00  0.2772680E+01  0.1998093E+00 -0.7724883E-01
  0.6407370E+01  0.7807410E+01 -0.1027320E+00  0.2563146E+00  0.2690521E+01  0.2306782E+00 -0.1117352E+00
  0.5611260E+01  0.8397840E+01 -0.1027320E+00  0.2976341E+00  0.2642001E+01  0.2612568E+00 -0.1425867E+00
  0.4761110E+01  0.8907410E+01 -0.1027320E+00  0.3363092E+00  0.2612364E+01  0.2903010E+00 -0.1697917E+00
  0.3865100E+01  0.9331180E+01 -0.1027320E+00  0.3703465E+00  0.2594973E+01  0.3163820E+00 -0.1925069E+00
  0.2931870E+01  0.9665100E+01 -0.1027320E+00  0.4001635E+00  0.2584071E+01  0.3395664E+00 -0.2117204E+00
  0.1970410E+01  0.9905930E+01 -0.1027320E+00  0.4248596E+00  0.2578220E+01  0.3592014E+00 -0.2268922E+00
  0.9899730E+00  0.1005140E+02 -0.1027320E+00  0.4441880E+00  0.2574789E+01  0.3747265E+00 -0.2385016E+00
 -0.4414850E-06  0.1010000E+02 -0.1027320E+00  0.4569631E+00  0.2573219E+01  0.3851181E+00 -0.2459661E+00
 -0.9899740E+00  0.1005140E+02 -0.1027320E+00  0.4640381E+00  0.2572211E+01  0.3908288E+00 -0.2501684E+00
 -0.1970410E+01  0.9905930E+01 -0.1027320E+00  0.4645005E+00  0.2572246E+01  0.3912271E+00 -0.2504039E+00
 -0.2931880E+01  0.9665100E+01 -0.1027320E+00  0.4589737E+00  0.2572719E+01  0.3866892E+00 -0.2472413E+00
 -0.3865100E+01  0.9331180E+01 -0.1027320E+00  0.4469845E+00  0.2574514E+01  0.3770197E+00 -0.2401067E+00
 -0.4761110E+01  0.8907400E+01 -0.1027320E+00  0.4294565E+00  0.2577322E+01  0.3628817E+00 -0.2296731E+00
 -0.5611260E+01  0.8397840E+01 -0.1027320E+00  0.4055621E+00  0.2582824E+01  0.3438797E+00 -0.2150056E+00
 -0.6407370E+01  0.7807410E+01 -0.1027320E+00  0.3766341E+00  0.2592014E+01  0.3211727E+00 -0.1967266E+00
 -0.7141780E+01  0.7141780E+01 -0.1027320E+00  0.3431223E+00  0.2608373E+01  0.2954884E+00 -0.1744120E+00
 -0.7807410E+01  0.6407370E+01 -0.1027320E+00  0.3059452E+00  0.2634521E+01  0.2674483E+00 -0.1485729E+00
 -0.8397840E+01  0.5611260E+01 -0.1027320E+00  0.2649414E+00  0.2678916E+01  0.2370856E+00 -0.1182554E+00
 -0.8907410E+01  0.4761110E+01 -0.1027320E+00  0.2224364E+00  0.2752575E+01  0.2058164E+00 -0.8436560E-01
 -0.9331180E+01  0.3865100E+01 -0.1027320E+00  0.1811863E+00  0.2878724E+01  0.1749623E+00 -0.4708157E-01
 -0.9665100E+01  0.2931880E+01 -0.1027320E+00  0.1450226E+00  0.3094486E+01  0.1448617E+00 -0.6829087E-02
 -0.9905930E+01  0.1970410E+01 -0.1027320E+00  0.1216931E+00 -0.2832138E+01  0.1159126E+00  0.3706031E-01
 -0.1005140E+02  0.9899730E+00 -0.1027320E+00  0.1219229E+00 -0.2390313E+01  0.8910315E-01  0.8322145E-01
 -0.1010000E+02 -0.8829700E-06 -0.1027320E+00  0.1462079E+00 -0.2035880E+01  0.6557389E-01  0.1306783E+00
 -0.1005140E+02 -0.9899740E+00 -0.1027320E+00  0.1848260E+00 -0.1818070E+01  0.4523820E-01  0.1792042E+00
 -0.9905930E+01 -0.1970410E+01 -0.1027320E+00  0.2307240E+00 -0.1694887E+01  0.2855716E-01  0.2289499E+00
 -0.9665100E+01 -0.2931880E+01 -0.1027320E+00  0.2789398E+00 -0.1626536E+01  0.1553985E-01  0.2785066E+00
 -0.9331180E+01 -0.3865100E+01 -0.1027320E+00  0.3264754E+00 -0.1590675E+01  0.6489533E-02  0.3264109E+00
 -0.8907400E+01 -0.4761110E+01 -0.1027320E+00  0.3728740E+00 -0.1573470E+01  0.9968799E-03  0.3728727E+00
 -0.8397840E+01 -0.5611260E+01 -0.1027320E+00  0.4176459E+00 -0.1569022E+01 -0.7408419E-03  0.4176453E+00
 -0.7807400E+01 -0.6407370E+01 -0.1027320E+00  0.4598480E+00 -0.1571724E+01  0.4265043E-03  0.4598478E+00
 -0.7141780E+01 -0.7141780E+01 -0.1027320E+00  0.4982150E+00 -0.1578645E+01  0.3910515E-02  0.4981996E+00
 -0.6407370E+01 -0.7807410E+01 -0.1027320E+00  0.5334620E+00 -0.1588278E+01  0.9325192E-02  0.5333804E+00
 -0.5611260E+01 -0.8397850E+01 -0.1027320E+00  0.5652057E+00 -0.1600023E+01  0.1651686E-01  0.5649643E+00
 -0.4761110E+01 -0.8907410E+01 -0.1027320E+00  0.5933960E+00 -0.1612041E+01  0.2446756E-01  0.5928913E+00
 -0.3865100E+01 -0.9331190E+01 -0.1027320E+00  0.6171334E+00 -0.1623032E+01  0.3222147E-01  0.6162917E+00
 -0.2931870E+01 -0.9665100E+01 -0.1027320E+00  0.6373412E+00 -0.1633114E+01  0.3969214E-01  0.6361040E+00
 -0.1970410E+01 -0.9905930E+01 -0.1027320E+00  0.6534628E+00 -0.1642050E+01  0.4652226E-01  0.6518047E+00
 -0.9899710E+00 -0.1005140E+02 -0.1027320E+00  0.6658801E+00 -0.1649230E+01  0.5217375E-01  0.6638330E+00
  0.1204410E-06 -0.1010000E+02 -0.1027320E+00  0.6739250E+00 -0.1653921E+01  0.5595561E-01  0.6715980E+00
  0.9899760E+00 -0.1005140E+02 -0.1027320E+00  0.6784366E+00 -0.1656519E+01  0.5808602E-01  0.6759455E+00
  0.1970410E+01 -0.9905930E+01 -0.1027320E+00  0.6786949E+00 -0.1656667E+01  0.5820874E-01  0.6761941E+00
  0.2931880E+01 -0.9665100E+01 -0.1027320E+00  0.6752738E+00 -0.1654590E+01  0.5651775E-01  0.6729045E+00
  0.3865100E+01 -0.9331180E+01 -0.1027320E+00  0.6676193E+00 -0.1650210E+01  0.5296228E-01  0.6655153E+00
  0.4761110E+01 -0.8907410E+01 -0.1027320E+00  0.6564318E+00 -0.1643860E+01  0.4791865E-01  0.6546804E+00
  0.5611260E+01 -0.8397840E+01 -0.1027320E+00  0.6408321E+00 -0.1635156E+01  0.4121520E-01  0.6395053E+00
  0.6407370E+01 -0.7807410E+01 -0.1027320E+00  0.6215362E+00 -0.1624950E+01  0.3364198E-01  0.6206251E+00
  0.7141780E+01 -0.7141780E+01 -0.1027320E+00  0.5982180E+00 -0.1614043E+01  0.2586313E-01  0.5976586E+00
  0.7807410E+01 -0.6407370E+01 -0.1027320E+00  0.5713907E+00 -0.1602676E+01  0.1821248E-01  0.5711004E+00
  0.8397840E+01 -0.5611260E+01 -0.1027320E+00  0.5401590E+00 -0.1590881E+01  0.1084825E-01  0.5400501E+00
  0.8907410E+01 -0.4761110E+01 -0.1027320E+00  0.5054607E+00 -0.1580096E+01  0.4700364E-02  0.5054388E+00
  0.9331180E+01 -0.3865100E+01 -0.1027320E+00  0.4674951E+00 -0.1572555E+01  0.8222563E-03  0.4674943E+00
  0.9665100E+01 -0.2931870E+01 -0.1027320E+00  0.4266183E+00 -0.1569155E+01 -0.7000675E-03  0.4266178E+00
  0.9905930E+01 -0.1970410E+01 -0.1027320E+00  0.3822016E+00 -0.1572245E+01  0.5535475E-03  0.3822012E+00
  0.1005140E+02 -0.9899690E+00 -0.1027320E+00  0.3356579E+00 -0.1585771E+01  0.5026145E-02  0.3356202E+00
  0.1010000E+02  0.0000000E+00 -0.2310450E+00  0.2859207E+00 -0.1617186E+01  0.1325896E-01  0.2856131E+00
  0.1005140E+02  0.9899730E+00 -0.2310450E+00  0.2385863E+00 -0.1677042E+01  0.2530098E-01  0.2372410E+00
  0.9905930E+01  0.1970410E+01 -0.2310450E+00  0.1923531E+00 -0.1787069E+01  0.4127717E-01  0.1878720E+00
  0.9665100E+01  0.2931880E+01 -0.2310450E+00  0.1515683E+00 -0.1983580E+01  0.6080330E-01  0.1388377E+00
  0.9331180E+01  0.3865100E+01 -0.2310450E+00  0.1239266E+00 -0.2310986E+01  0.8357950E-01  0.9150006E-01
  0.8907400E+01  0.4761110E+01 -0.2310450E+00  0.1184697E+00 -0.2744572E+01  0.1092548E+00  0.4580893E-01
  0.8397840E+01  0.5611260E+01 -0.2310450E+00  0.1377043E+00 -0.3128002E+01  0.1376916E+00  0.1871397E-02
  0.7807410E+01  0.6407370E+01 -0.2310450E+00  0.1722856E+00  0.2910984E+01  0.1677248E+00 -0.3937934E-01
  0.7141780E+01  0.7141780E+01 -0.2310450E+00  0.2126533E+00  0.2771520E+01  0.1982569E+00 -0.7691313E-01
  0.6407370E+01  0.7807410E+01 -0.2310450E+00  0.2543864E+00  0.2690002E+01  0.2288852E+00 -0.1110134E+00
  0.5611260E+01  0.8397840E+01 -0.2310450E+00  0.2954083E+00  0.2641474E+01  0.2592283E+00 -0.1416572E+00
  0.4761110E+01  0.8907410E+01 -0.2310450E+00  0.3337551E+00  0.2611969E+01  0.2880298E+00 -0.1686159E+00
  0.3865100E+01  0.9331180E+01 -0.2310450E+00  0.3677035E+00  0.2594312E+01  0.3139978E+00 -0.1913406E+00
  0.2931870E+01  0.9665100E+01 -0.2310450E+00  0.3971458E+00  0.2583740E+01  0.3369360E+00 -0.2102354E+00
  0.1970410E+01  0.9905930E+01 -0.2310450E+00  0.4216877E+00  0.2577857E+01  0.3564379E+00 -0.2253277E+00
  0.9899730E+00  0.1005140E+02 -0.2310450E+00  0.4408224E+00  0.2574481E+01  0.3718143E+00 -0.2368090E+00
 -0.4414850E-06  0.1010000E+02 -0.2310450E+00  0.4537061E+00  0.2572698E+01  0.3822460E+00 -0.2444119E+00
 -0.9899740E+00  0.1005140E+02 -0.2310450E+00  0.4605284E+00  0.2571920E+01  0.3878006E+00 -0.2483890E+00
 -0.1970410E+01  0.9905930E+01 -0.2310450E+00  0.4610324E+00  0.2571919E+01  0.3882248E+00 -0.2486612E+00
 -0.2931880E+01  0.9665100E+01 -0.2310450E+00  0.4555041E+00  0.2572425E+01  0.3836939E+00 -0.2454852E+00
 -0.3865100E+01  0.9331180E+01 -0.2310450E+00  0.4437979E+00  0.2573980E+01  0.3742045E+00 -0.2385949E+00
 -0.4761110E+01  0.8907400E+01 -0.2310450E+00  0.4262013E+00  0.2577005E+01  0.3600588E+00 -0.2280465E+00
 -0.5611260E+01  0.8397840E+01 -0.2310450E+00  0.4025354E+00  0.2582444E+01  0.3412321E+00 -0.2135308E+00
 -0.6407370E+01  0.7807410E+01 -0.2310450E+00  0.3737970E+00  0.2591664E+01  0.3186850E+00 -0.1953564E+00
 -0.7141780E+01  0.7141780E+01 -0.2310450E+00  0.3406699E+00  0.2607653E+01  0.2932516E+00 -0.1733766E+00
 -0.7807410E+01  0.6407370E+01 -0.2310450E+00  0.3036182E+00  0.2634095E+01  0.2653512E+00 -0.1475559E+00
 -0.8397840E+01  0.5611260E+01 -0.2310450E+00  0.2629556E+00  0.2678320E+01  0.2352387E+00 -0.1175090E+00
 -0.8907410E+01  0.4761110E+01 -0.2310450E+00  0.2207597E+00  0.2751972E+01  0.2042145E+00 -0.8385277E-01
 -0.9331180E+01  0.3865100E+01 -0.2310450E+00  0.1798292E+00  0.2877379E+01  0.1735887E+00 -0.4696250E-01
 -0.9665100E+01  0.2931880E+01 -0.2310450E+00  0.1438716E+00  0.3093734E+01  0.1437068E+00 -0.6882821E-02
 -0.9905930E+01  0.1970410E+01 -0.2310450E+00  0.1206771E+00 -0.2833093E+01  0.1149799E+00  0.3664110E-01
 -0.1005140E+02  0.9899730E+00 -0.2310450E+00  0.1208836E+00 -0.2390940E+01  0.8839536E-01  0.8245663E-01
 -0.1010000E+02 -0.8829700E-06 -0.2310450E+00  0.1449192E+00 -0.2035891E+01  0.6499730E-01  0.1295258E+00
 -0.1005140E+02 -0.9899740E+00 -0.2310450E+00  0.1833142E+00 -0.1818030E+01  0.4486116E-01  0.1777402E+00
 -0.9905930E+01 -0.1970410E+01 -0.2310450E+00  0.2288491E+00 -0.1694756E+01  0.2829556E-01  0.2270931E+00
 -0.9665100E+01 -0.2931880E+01 -0.2310450E+00  0.2766859E+00 -0.1626483E+01  0.1539980E-01  0.2762570E+00
 -0.9331180E+01 -0.3865100E+01 -0.2310450E+00  0.3239228E+00 -0.1590466E+01  0.6371065E-02  0.3238602E+00
 -0.8907400E+01 -0.4761110E+01 -0.2310450E+00  0.3699365E+00 -0.1573448E+01  0.9810883E-03  0.3699352E+00
 -0.8397840E+01 -0.5611260E+01 -0.2310450E+00  0.4143752E+00 -0.1568971E+01 -0.7565324E-03  0.4143745E+00
 -0.7807400E+01 -0.6407370E+01 -0.2310450E+00  0.4562238E+00 -0.1571700E+01  0.4122343E-03  0.4562237E+00
 -0.7141780E+01 -0.7141780E+01 -0.2310450E+00  0.4944342E+00 -0.1578604E+01  0.3860072E-02  0.4944191E+00
 -0.6407370E+01 -0.7807410E+01 -0.2310450E+00  0.5292996E+00 -0.1588306E+01  0.9267448E-02  0.5292184E+00
 -0.5611260E+01 -0.8397850E+01 -0.2310450E+00  0.5608265E+00 -0.1600045E+01  0.1640119E-01  0.5605866E+00
 -0.4761110E+01 -0.8907410E+01 -0.2310450E+00  0.5887640E+00 -0.1612057E+01  0.2428591E-01  0.5882629E+00
 -0.3865100E+01 -0.9331190E+01 -0.2310450E+00  0.6124969E+00 -0.1623091E+01  0.3201555E-01  0.6116595E+00
 -0.2931870E+01 -0.9665100E+01 -0.2310450E+00  0.6323867E+00 -0.1633165E+01  0.3941530E-01  0.6311572E+00
 -0.1970410E+01 -0.9905930E+01 -0.2310450E+00  0.6484203E+00 -0.1642111E+01  0.4620297E-01  0.6467721E+00
 -0.9899710E+00 -0.1005140E+02 -0.2310450E+00  0.6607038E+00 -0.1649272E+01  0.5179581E-01  0.6586704E+00
  0.1204410E-06 -0.1010000E+02 -0.2310450E+00  0.6688788E+00 -0.1654027E+01  0.5560688E-01  0.6665634E+00
  0.9899760E+00 -0.1005140E+02 -0.2310450E+00  0.6731673E+00 -0.1656571E+01  0.5767016E-01  0.6706924E+00
  0.1970410E+01 -0.9905930E+01 -0.2310450E+00  0.6734642E+00 -0.1656740E+01  0.5780892E-01  0.6709785E+00
  0.2931880E+01 -0.9665100E+01 -0.2310450E+00  0.6700295E+00 -0.1654644E+01  0.5611469E-01  0.6676756E+00
  0.3865100E+01 -0.9331180E+01 -0.2310450E+00  0.6626188E+00 -0.1650310E+01  0.5263157E-01  0.6605253E+00
  0.4761110E+01 -0.8907410E+01 -0.2310450E+00  0.6513267E+00 -0.1643898E+01  0.4757036E-01  0.6495872E+00
  0.5611260E+01 -0.8397840E+01 -0.2310450E+00  0.6358848E+00 -0.1635212E+01  0.4093244E-01  0.6345660E+00
  0.6407370E+01 -0.7807410E+01 -0.2310450E+00  0.6167023E+00 -0.1624998E+01  0.3340991E-01  0.6157967E+00
  0.7141780E+01 -0.7141780E+01 -0.2310450E+00  0.5937169E+00 -0.1614087E+01  0.2569466E-01  0.5931606E+00
  0.7807410E+01 -0.6407370E+01 -0.2310450E+00  0.5669239E+00 -0.1602684E+01  0.1807494E-01  0.5666357E+00
  0.8397840E+01 -0.5611260E+01 -0.2310450E+00  0.5359685E+00 -0.1590891E+01  0.1076927E-01  0.5358603E+00
  0.8907410E+01 -0.4761110E+01 -0.2310450E+00  0.5015120E+00 -0.1580117E+01  0.4674265E-02  0.5014902E+00
  0.9331180E+01 -0.3865100E+01 -0.2310450E+00  0.4639344E+00 -0.1572485E+01  0.7833352E-03  0.4639338E+00
  0.9665100E+01 -0.2931870E+01 -0.2310450E+00  0.4232455E+00 -0.1569124E+01 -0.7077868E-03  0.4232450E+00
  0.9905930E+01 -0.1970410E+01 -0.2310450E+00  0.3791961E+00 -0.1572174E+01  0.5223959E-03  0.3791957E+00
  0.1005140E+02 -0.9899690E+00 -0.2310450E+00  0.3330034E+00 -0.1585736E+01  0.4974627E-02  0.3329662E+00
  0.1010000E+02  0.0000000E+00 -0.4105000E+00  0.2827280E+00 -0.1617179E+01  0.1310900E-01  0.2824239E+00
  0.1005140E+02  0.9899730E+00 -0.4105000E+00  0.2358648E+00 -0.1677331E+01  0.2508024E-01  0.2345276E+00
  0.9905930E+01  0.1970410E+01 -0.4105000E+00  0.1901601E+00 -0.1787249E+01  0.4083993E-01  0.1857228E+00
  0.9665100E+01  0.2931880E+01 -0.4105000E+00  0.1498755E+00 -0.1983962E+01  0.6017657E-01  0.1372641E+00
  0.9331180E+01  0.3865100E+01 -0.4105000E+00  0.1224649E+00 -0.2311740E+01  0.8266195E-01  0.9035850E-01
  0.8907400E+01  0.4761110E+01 -0.4105000E+00  0.1171782E+00 -0.2745421E+01  0.1081022E+00  0.4521785E-01
  0.8397840E+01  0.5611260E+01 -0.4105000E+00  0.1362012E+00 -0.3128857E+01  0.1361901E+00  0.1734570E-02
  0.7807410E+01  0.6407370E+01 -0.4105000E+00  0.1704003E+00  0.2910732E+01  0.1658796E+00 -0.3899023E-01
  0.7141780E+01  0.7141780E+01 -0.4105000E+00  0.2104141E+00  0.2770613E+01  0.1961002E+00 -0.7628111E-01
  0.6407370E+01  0.7807410E+01 -0.4105000E+00  0.2516347E+00  0.2689750E+01  0.2263817E+00 -0.1098698E+00
  0.5611260E+01  0.8397840E+01 -0.4105000E+00  0.2922375E+00  0.2641045E+01  0.2563858E+00 -0.1402465E+00
  0.4761110E+01  0.8907410E+01 -0.4105000E+00  0.3300758E+00  0.2611752E+01  0.2848184E+00 -0.1668188E+00
  0.3865100E+01  0.9331180E+01 -0.4105000E+00  0.3638448E+00  0.2593745E+01  0.3105952E+00 -0.1895092E+00
  0.2931870E+01  0.9665100E+01 -0.4105000E+00  0.3927937E+00  0.2583528E+01  0.3331996E+00 -0.2080023E+00
  0.1970410E+01  0.9905930E+01 -0.4105000E+00  0.4171455E+00  0.2577524E+01  0.3525242E+00 -0.2230181E+00
  0.9899730E+00  0.1005140E+02 -0.4105000E+00  0.4359593E+00  0.2574255E+01  0.3676596E+00 -0.2342796E+00
 -0.4414850E-06  0.1010000E+02 -0.4105000E+00  0.4489352E+00  0.2572212E+01  0.3781089E+00 -0.2420259E+00
 -0.9899740E+00  0.1005140E+02 -0.4105000E+00  0.4554555E+00  0.2571697E+01  0.3834741E+00 -0.2457384E+00
 -0.1970410E+01  0.9905930E+01 -0.4105000E+00  0.4560604E+00  0.2571599E+01  0.3839594E+00 -0.2461022E+00
 -0.2931880E+01  0.9665100E+01 -0.4105000E+00  0.4504904E+00  0.2572205E+01  0.3794170E+00 -0.2428669E+00
 -0.3865100E+01  0.9331180E+01 -0.4105000E+00  0.4391324E+00  0.2573486E+01  0.3701541E+00 -0.2362695E+00
 -0.4761110E+01  0.8907400E+01 -0.4105000E+00  0.4214996E+00  0.2576780E+01  0.3560360E+00 -0.2256107E+00
 -0.5611260E+01  0.8397840E+01 -0.4105000E+00  0.3982009E+00  0.2582100E+01  0.3374850E+00 -0.2113476E+00
 -0.6407370E+01  0.7807410E+01 -0.4105000E+00  0.3697073E+00  0.2591451E+01  0.3151572E+00 -0.1932858E+00
 -0.7141780E+01  0.7141780E+01 -0.4105000E+00  0.3370964E+00  0.2607051E+01  0.2900721E+00 -0.1717328E+00