 VARIABLES="X" "Y" "Z" "abs(eta) (m)" "angle(phi) (rad)" "PRE1" "PRE2"
ZONE N=   3200 ,E =    3136 ,F=FEPOINT,ET=QUADRILATERAL
  0.1100000E+02  0.0000000E+00  0.0000000E+00  0.2863296E+00  0.2505164E+01  0.2302729E+00 -0.1701735E+00
  0.1094700E+02  0.1078190E+01  0.0000000E+00  0.3040929E+00  0.2492920E+01  0.2423275E+00 -0.1837114E+00
  0.1078860E+02  0.2145990E+01  0.0000000E+00  0.3183048E+00  0.2484727E+01  0.2520688E+00 -0.1943689E+00
  0.1052630E+02  0.3193130E+01  0.0000000E+00  0.3284478E+00  0.2479580E+01  0.2590654E+00 -0.2018987E+00
  0.1016270E+02  0.4209520E+01  0.0000000E+00  0.3345092E+00  0.2476378E+01  0.2631866E+00 -0.2064683E+00
  0.9701130E+01  0.5185360E+01  0.0000000E+00  0.3354999E+00  0.2476410E+01  0.2639726E+00 -0.2070716E+00
  0.9146170E+01  0.6111270E+01  0.0000000E+00  0.3323376E+00  0.2477872E+01  0.2617841E+00 -0.2047373E+00
  0.8503110E+01  0.6978330E+01  0.0000000E+00  0.3248733E+00  0.2481253E+01  0.2565797E+00 -0.1992725E+00
  0.7778170E+01  0.7778170E+01  0.0000000E+00  0.3134788E+00  0.2486832E+01  0.2486495E+00 -0.1908989E+00
  0.6978330E+01  0.8503110E+01  0.0000000E+00  0.2974117E+00  0.2497460E+01  0.2378166E+00 -0.1785973E+00
  0.6111270E+01  0.9146170E+01  0.0000000E+00  0.2777396E+00  0.2512946E+01  0.2246425E+00 -0.1633250E+00
  0.5185360E+01  0.9701130E+01  0.0000000E+00  0.2547643E+00  0.2536211E+01  0.2094888E+00 -0.1449803E+00
  0.4209520E+01  0.1016270E+02  0.0000000E+00  0.2292852E+00  0.2570799E+01  0.1929372E+00 -0.1238828E+00
  0.3193130E+01  0.1052630E+02  0.0000000E+00  0.2013052E+00  0.2626100E+01  0.1751455E+00 -0.9923621E-01
  0.2145990E+01  0.1078860E+02  0.0000000E+00  0.1723533E+00  0.2711502E+01  0.1566567E+00 -0.7186332E-01
  0.1078190E+01  0.1094700E+02  0.0000000E+00  0.1442800E+00  0.2846824E+01  0.1380571E+00 -0.4191601E-01
 -0.4808250E-06  0.1100000E+02  0.0000000E+00  0.1203501E+00  0.3059171E+01  0.1199416E+00 -0.9908207E-02
 -0.1078190E+01  0.1094700E+02  0.0000000E+00  0.1055448E+00 -0.2907153E+01  0.1026576E+00  0.2451788E-01
 -0.2145990E+01  0.1078860E+02  0.0000000E+00  0.1056903E+00 -0.2529776E+01  0.8651870E-01  0.6070379E-01
 -0.3193130E+01  0.1052630E+02  0.0000000E+00  0.1217536E+00 -0.2203606E+01  0.7200669E-01  0.9817834E-01
 -0.4209520E+01  0.1016270E+02  0.0000000E+00  0.1486644E+00 -0.1981950E+01  0.5941632E-01  0.1362747E+00
 -0.5185370E+01  0.9701130E+01  0.0000000E+00  0.1815902E+00 -0.1844185E+01  0.4902857E-01  0.1748462E+00
 -0.6111270E+01  0.9146160E+01  0.0000000E+00  0.2174036E+00 -0.1759647E+01  0.4081324E-01  0.2135383E+00
 -0.6978330E+01  0.8503120E+01  0.0000000E+00  0.2540950E+00 -0.1708484E+01  0.3487542E-01  0.2516902E+00
 -0.7778170E+01  0.7778170E+01  0.0000000E+00  0.2903861E+00 -0.1678005E+01  0.3107221E-01  0.2887189E+00
 -0.8503120E+01  0.6978330E+01  0.0000000E+00  0.3254241E+00 -0.1661359E+01  0.2943091E-01  0.3240906E+00
 -0.9146170E+01  0.6111270E+01  0.0000000E+00  0.3591477E+00 -0.1653500E+01  0.2966905E-01  0.3579201E+00
 -0.9701130E+01  0.5185360E+01  0.0000000E+00  0.3908852E+00 -0.1651463E+01  0.3149736E-01  0.3896141E+00
 -0.1016270E+02  0.4209520E+01  0.0000000E+00  0.4202955E+00 -0.1652958E+01  0.3449324E-01  0.4188777E+00
 -0.1052630E+02  0.3193130E+01  0.0000000E+00  0.4466200E+00 -0.1656964E+01  0.3843644E-01  0.4449630E+00
 -0.1078860E+02  0.2145990E+01  0.0000000E+00  0.4704458E+00 -0.1662395E+01  0.4303215E-01  0.4684736E+00
 -0.1094700E+02  0.1078190E+01  0.0000000E+00  0.4913470E+00 -0.1668303E+01  0.4783381E-01  0.4890130E+00
 -0.1100000E+02 -0.9616510E-06  0.0000000E+00  0.5092975E+00 -0.1673962E+01  0.5244865E-01  0.5065897E+00
 -0.1094700E+02 -0.1078190E+01  0.0000000E+00  0.5233856E+00 -0.1679073E+01  0.5655988E-01  0.5203206E+00
 -0.1078860E+02 -0.2146000E+01  0.0000000E+00  0.5345132E+00 -0.1683421E+01  0.6007236E-01  0.5311268E+00
 -0.1052630E+02 -0.3193130E+01  0.0000000E+00  0.5423941E+00 -0.1686598E+01  0.6266972E-01  0.5387614E+00
 -0.1016270E+02 -0.4209520E+01  0.0000000E+00  0.5471649E+00 -0.1688446E+01  0.6422536E-01  0.5433825E+00
 -0.9701130E+01 -0.5185360E+01  0.0000000E+00  0.5478221E+00 -0.1688831E+01  0.6451204E-01  0.5440103E+00
 -0.9146160E+01 -0.6111270E+01  0.0000000E+00  0.5453756E+00 -0.1687828E+01  0.6368088E-01  0.5416450E+00
 -0.8503110E+01 -0.6978330E+01  0.0000000E+00  0.5396397E+00 -0.1685422E+01  0.6172113E-01  0.5360984E+00
 -0.7778170E+01 -0.7778180E+01  0.0000000E+00  0.5308613E+00 -0.1681864E+01  0.5884039E-01  0.5275903E+00
 -0.6978330E+01 -0.8503110E+01  0.0000000E+00  0.5180693E+00 -0.1677217E+01  0.5502915E-01  0.5151384E+00
 -0.6111270E+01 -0.9146170E+01  0.0000000E+00  0.5022271E+00 -0.1671703E+01  0.5059186E-01  0.4996724E+00
 -0.5185360E+01 -0.9701130E+01  0.0000000E+00  0.4832850E+00 -0.1665775E+01  0.4583297E-01  0.4811068E+00
 -0.4209510E+01 -0.1016270E+02  0.0000000E+00  0.4616023E+00 -0.1660122E+01  0.4117808E-01  0.4597620E+00
 -0.3193130E+01 -0.1052630E+02  0.0000000E+00  0.4364418E+00 -0.1655351E+01  0.3685915E-01  0.4348826E+00
 -0.2145990E+01 -0.1078860E+02  0.0000000E+00  0.4086157E+00 -0.1652029E+01  0.3315640E-01  0.4072683E+00
 -0.1078190E+01 -0.1094700E+02  0.0000000E+00  0.3783221E+00 -0.1651554E+01  0.3051925E-01  0.3770891E+00
  0.1311740E-06 -0.1100000E+02  0.0000000E+00  0.3461049E+00 -0.1655658E+01  0.2933577E-01  0.3448594E+00
  0.1078190E+01 -0.1094700E+02  0.0000000E+00  0.3117009E+00 -0.1666949E+01  0.2992478E-01  0.3102611E+00
  0.2145990E+01 -0.1078860E+02  0.0000000E+00  0.2758352E+00 -0.1688420E+01  0.3237011E-01  0.2739293E+00
  0.3193140E+01 -0.1052630E+02  0.0000000E+00  0.2392177E+00 -0.1725914E+01  0.3695830E-01  0.2363455E+00
  0.4209520E+01 -0.1016270E+02  0.0000000E+00  0.2029505E+00 -0.1788112E+01  0.4375802E-01  0.1981770E+00
  0.5185360E+01 -0.9701130E+01  0.0000000E+00  0.1681476E+00 -0.1890978E+01  0.5292253E-01  0.1596021E+00
  0.6111270E+01 -0.9146160E+01  0.0000000E+00  0.1369565E+00 -0.2059188E+01  0.6426080E-01  0.1209447E+00
  0.6978330E+01 -0.8503110E+01  0.0000000E+00  0.1135673E+00 -0.2323694E+01  0.7765233E-01  0.8287126E-01
  0.7778180E+01 -0.7778170E+01  0.0000000E+00  0.1035065E+00 -0.2681547E+01  0.9274516E-01  0.4595578E-01
  0.8503120E+01 -0.6978320E+01  0.0000000E+00  0.1098870E+00 -0.3043540E+01  0.1093592E+00  0.1075748E-01
  0.9146170E+01 -0.6111270E+01  0.0000000E+00  0.1291837E+00  0.2963580E+01  0.1271423E+00 -0.2287511E-01
  0.9701130E+01 -0.5185360E+01  0.0000000E+00  0.1554017E+00  0.2784294E+01  0.1455874E+00 -0.5435089E-01
  0.1016270E+02 -0.4209520E+01  0.0000000E+00  0.1840793E+00  0.2671464E+01  0.1641085E+00 -0.8338814E-01
  0.1052630E+02 -0.3193130E+01  0.0000000E+00  0.2124535E+00  0.2601652E+01  0.1822297E+00 -0.1092192E+00
  0.1078860E+02 -0.2145990E+01  0.0000000E+00  0.2396448E+00  0.2555821E+01  0.1996926E+00 -0.1324858E+00
  0.1094700E+02 -0.1078180E+01  0.0000000E+00  0.2644726E+00  0.2525632E+01  0.2158675E+00 -0.1527973E+00
  0.1100000E+02  0.0000000E+00 -0.2568960E-01  0.2859519E+00  0.2505187E+01  0.2299732E+00 -0.1699436E+00
  0.1094700E+02  0.1078190E+01 -0.2568960E-01  0.3037188E+00  0.2492893E+01  0.2420243E+00 -0.1834920E+00
  0.1078860E+02  0.2145990E+01 -0.2568960E-01  0.3179151E+00  0.2484694E+01  0.2517537E+00 -0.1941393E+00
  0.1052630E+02  0.3193130E+01 -0.2568960E-01  0.3280397E+00  0.2479555E+01  0.2587384E+00 -0.2016543E+00
  0.1016270E+02  0.4209520E+01 -0.2568960E-01  0.3340652E+00  0.2476401E+01  0.2628421E+00 -0.2061883E+00
  0.9701130E+01  0.5185360E+01 -0.2568960E-01  0.3350839E+00  0.2476389E+01  0.2636410E+00 -0.2068203E+00
  0.9146170E+01  0.6111270E+01 -0.2568960E-01  0.3319305E+00  0.2477842E+01  0.2614573E+00 -0.2044943E+00
  0.8503110E+01  0.6978330E+01 -0.2568960E-01  0.3244716E+00  0.2481229E+01  0.2562576E+00 -0.1990322E+00
  0.7778170E+01  0.7778170E+01 -0.2568960E-01  0.3130634E+00  0.2486857E+01  0.2483247E+00 -0.1906398E+00
  0.6978330E+01  0.8503110E+01 -0.2568960E-01  0.2970423E+00  0.2497428E+01  0.2375156E+00 -0.1783829E+00
  0.6111270E+01  0.9146170E+01 -0.2568960E-01  0.2774009E+00  0.2512900E+01  0.2243610E+00 -0.1631362E+00
  0.5185360E+01  0.9701130E+01 -0.2568960E-01  0.2544533E+00  0.2536165E+01  0.2092265E+00 -0.1448129E+00
  0.4209520E+01  0.1016270E+02 -0.2568960E-01  0.2289854E+00  0.2570823E+01  0.1926879E+00 -0.1237161E+00
  0.3193130E+01  0.1052630E+02 -0.2568960E-01  0.2010547E+00  0.2626036E+01  0.1749213E+00 -0.9912376E-01
  0.2145990E+01  0.1078860E+02 -0.2568960E-01  0.1721431E+00  0.2711397E+01  0.1564582E+00 -0.7179204E-01
  0.1078190E+01  0.1094700E+02 -0.2568960E-01  0.1441045E+00  0.2846698E+01  0.1378839E+00 -0.4188244E-01
 -0.4808250E-06  0.1100000E+02 -0.2568960E-01  0.1201986E+00  0.3059158E+01  0.1197904E+00 -0.9897370E-02
 -0.1078190E+01  0.1094700E+02 -0.2568960E-01  0.1054050E+00 -0.2907275E+01  0.1025246E+00  0.2447283E-01
 -0.2145990E+01  0.1078860E+02 -0.2568960E-01  0.1055434E+00 -0.2529916E+01  0.8640691E-01  0.6060738E-01
 -0.3193130E+01  0.1052630E+02 -0.2568960E-01  0.1215819E+00 -0.2203713E+01  0.7191561E-01  0.9803219E-01
 -0.4209520E+01  0.1016270E+02 -0.2568960E-01  0.1484648E+00 -0.1982029E+01  0.5934719E-01  0.1360871E+00
 -0.5185370E+01  0.9701130E+01 -0.2568960E-01  0.1813466E+00 -0.1844204E+01  0.4896614E-01  0.1746107E+00
 -0.6111270E+01  0.9146160E+01 -0.2568960E-01  0.2171107E+00 -0.1759659E+01  0.4076086E-01  0.2132501E+00
 -0.6978330E+01  0.8503120E+01 -0.2568960E-01  0.2537514E+00 -0.1708502E+01  0.3483257E-01  0.2513493E+00
 -0.7778170E+01  0.7778170E+01 -0.2568960E-01  0.2899910E+00 -0.1678046E+01  0.3104180E-01  0.2883248E+00
 -0.8503120E+01  0.6978330E+01 -0.2568960E-01  0.3249966E+00 -0.1661379E+01  0.2939889E-01  0.3236642E+00
 -0.9146170E+01  0.6111270E+01 -0.2568960E-01  0.3586769E+00 -0.1653516E+01  0.2963595E-01  0.3574505E+00
 -0.9701130E+01  0.5185360E+01 -0.2568960E-01  0.3903683E+00 -0.1651481E+01  0.3146243E-01  0.3890983E+00
 -0.1016270E+02  0.4209520E+01 -0.2568960E-01  0.4197229E+00 -0.1652989E+01  0.3445924E-01  0.4183060E+00
 -0.1052630E+02  0.3193130E+01 -0.2568960E-01  0.4460363E+00 -0.1656992E+01  0.3839869E-01  0.4443804E+00
 -0.1078860E+02  0.2145990E+01 -0.2568960E-01  0.4698333E+00 -0.1662422E+01  0.4298849E-01  0.4678625E+00
 -0.1094700E+02  0.1078190E+01 -0.2568960E-01  0.4907018E+00 -0.1668329E+01  0.4778337E-01  0.4883697E+00
 -0.1100000E+02 -0.9616510E-06 -0.2568960E-01  0.5086047E+00 -0.1673988E+01  0.5239092E-01  0.5058991E+00
 -0.1094700E+02 -0.1078190E+01 -0.2568960E-01  0.5227018E+00 -0.1679106E+01  0.5650292E-01  0.5196389E+00
 -0.1078860E+02 -0.2146000E+01 -0.2568960E-01  0.5338192E+00 -0.1683454E+01  0.6001189E-01  0.5304352E+00
 -0.1052630E+02 -0.3193130E+01 -0.2568960E-01  0.5416842E+00 -0.1686629E+01  0.6260433E-01  0.5380543E+00
 -0.1016270E+02 -0.4209520E+01 -0.2568960E-01  0.5464197E+00 -0.1688472E+01  0.6415205E-01  0.5426407E+00
 -0.9701130E+01 -0.5185360E+01 -0.2568960E-01  0.5471052E+00 -0.1688864E+01  0.6444547E-01  0.5432963E+00
 -0.9146160E+01 -0.6111270E+01 -0.2568960E-01  0.5446666E+00 -0.1687863E+01  0.6361660E-01  0.5409387E+00
 -0.8503110E+01 -0.6978330E+01 -0.2568960E-01  0.5389341E+00 -0.1685455E+01  0.6165826E-01  0.5353953E+00
 -0.7778170E+01 -0.7778180E+01 -0.2568960E-01  0.5301383E+00 -0.1681890E+01  0.5877422E-01  0.5268702E+00
 -0.6978330E+01 -0.8503110E+01 -0.2568960E-01  0.5173894E+00 -0.1677245E+01  0.5497145E-01  0.5144607E+00
 -0.6111270E+01 -0.9146170E+01 -0.2568960E-01  0.5015742E+00 -0.1671732E+01  0.5054089E-01  0.4990214E+00
 -0.5185360E+01 -0.9701130E+01 -0.2568960E-01  0.4826531E+00 -0.1665806E+01  0.4578792E-01  0.4804763E+00
 -0.4209510E+01 -0.1016270E+02 -0.2568960E-01  0.4609739E+00 -0.1660151E+01  0.4113525E-01  0.4591348E+00
 -0.3193130E+01 -0.1052630E+02 -0.2568960E-01  0.4358667E+00 -0.1655372E+01  0.3681961E-01  0.4343087E+00
 -0.2145990E+01 -0.1078860E+02 -0.2568960E-01  0.4080825E+00 -0.1652049E+01  0.3312146E-01  0.4067362E+00
 -0.1078190E+01 -0.1094700E+02 -0.2568960E-01  0.3778265E+00 -0.1651577E+01  0.3048808E-01  0.3765944E+00
  0.1311740E-06 -0.1100000E+02 -0.2568960E-01  0.3456337E+00 -0.1655693E+01  0.2930794E-01  0.3443889E+00
  0.1078190E+01 -0.1094700E+02 -0.2568960E-01  0.3112844E+00 -0.1666964E+01  0.2988937E-01  0.3098461E+00
  0.2145990E+01 -0.1078860E+02 -0.2568960E-01  0.2754692E+00 -0.1688431E+01  0.3233000E-01  0.2735654E+00
  0.3193140E+01 -0.1052630E+02 -0.2568960E-01  0.2389008E+00 -0.1725931E+01  0.3691332E-01  0.2360318E+00
  0.4209520E+01 -0.1016270E+02 -0.2568960E-01  0.2026749E+00 -0.1788170E+01  0.4370996E-01  0.1979055E+00
  0.5185360E+01 -0.9701130E+01 -0.2568960E-01  0.1679136E+00 -0.1891021E+01  0.5285578E-01  0.1593777E+00
  0.6111270E+01 -0.9146160E+01 -0.2568960E-01  0.1367654E+00 -0.2059237E+01  0.6417718E-01  0.1207728E+00
  0.6978330E+01 -0.8503110E+01 -0.2568960E-01  0.1134119E+00 -0.2323762E+01  0.7755172E-01  0.8275253E-01
  0.7778180E+01 -0.7778170E+01 -0.2568960E-01  0.1033751E+00 -0.2681620E+01  0.9263076E-01  0.4589066E-01
  0.8503120E+01 -0.6978320E+01 -0.2568960E-01  0.1097469E+00 -0.3043730E+01  0.1092218E+00  0.1072298E-01
  0.9146170E+01 -0.6111270E+01 -0.2568960E-01  0.1290226E+00  0.2963425E+01  0.1269801E+00 -0.2286620E-01
  0.9701130E+01 -0.5185360E+01 -0.2568960E-01  0.1552069E+00  0.2784206E+01  0.1454000E+00 -0.5429563E-01
  0.1016270E+02 -0.4209520E+01 -0.2568960E-01  0.1838411E+00  0.2671482E+01  0.1638977E+00 -0.8327721E-01
  0.1052630E+02 -0.3193130E+01 -0.2568960E-01  0.2121955E+00  0.2601588E+01  0.1820014E+00 -0.1090983E+00
  0.1078860E+02 -0.2145990E+01 -0.2568960E-01  0.2393528E+00  0.2555758E+01  0.1994409E+00 -0.1323369E+00
  0.1094700E+02 -0.1078180E+01 -0.2568960E-01  0.2641437E+00  0.2525592E+01  0.2155929E+00 -0.1526159E+00
  0.1100000E+02  0.0000000E+00 -0.1027320E+00  0.2848360E+00  0.2505210E+01  0.2290796E+00 -0.1692752E+00
  0.1094700E+02  0.1078190E+01 -0.1027320E+00  0.3026174E+00  0.2492760E+01  0.2411224E+00 -0.1828586E+00
  0.1078860E+02  0.2145990E+01 -0.1027320E+00  0.3167793E+00  0.2484534E+01  0.2508234E+00 -0.1934858E+00
  0.1052630E+02  0.3193130E+01 -0.1027320E+00  0.3268420E+00  0.2479445E+01  0.2577716E+00 -0.2009464E+00
  0.1016270E+02  0.4209520E+01 -0.1027320E+00  0.3327588E+00  0.2476438E+01  0.2618216E+00 -0.2053725E+00
  0.9701130E+01  0.5185360E+01 -0.1027320E+00  0.3338623E+00  0.2476282E+01  0.2626579E+00 -0.2060943E+00
  0.9146170E+01  0.6111270E+01 -0.1027320E+00  0.3307439E+00  0.2477696E+01  0.2604930E+00 -0.2038011E+00
  0.8503110E+01  0.6978330E+01 -0.1027320E+00  0.3232921E+00  0.2481116E+01  0.2553037E+00 -0.1983376E+00
  0.7778170E+01  0.7778170E+01 -0.1027320E+00  0.3118398E+00  0.2486886E+01  0.2473596E+00 -0.1898875E+00
  0.6978330E+01  0.8503110E+01 -0.1027320E+00  0.2959548E+00  0.2497286E+01  0.2366207E+00 -0.1777635E+00
  0.6111270E+01  0.9146170E+01 -0.1027320E+00  0.2764098E+00  0.2512688E+01  0.2235250E+00 -0.1626006E+00
  0.5185360E+01  0.9701130E+01 -0.1027320E+00  0.2535338E+00  0.2535970E+01  0.2084423E+00 -0.1443302E+00
  0.4209520E+01  0.1016270E+02 -0.1027320E+00  0.2280960E+00  0.2570823E+01  0.1919395E+00 -0.1232356E+00
  0.3193130E+01  0.1052630E+02 -0.1027320E+00  0.2003110E+00  0.2625764E+01  0.1742474E+00 -0.9880450E-01
  0.2145990E+01  0.1078860E+02 -0.1027320E+00  0.1715176E+00  0.2710959E+01  0.1558583E+00 -0.7159945E-01
  0.1078190E+01  0.1094700E+02 -0.1027320E+00  0.1435727E+00  0.2846211E+01  0.1373547E+00 -0.4179472E-01
 -0.4808250E-06  0.1100000E+02 -0.1027320E+00  0.1197343E+00  0.3059028E+01  0.1193264E+00 -0.9874552E-02
 -0.1078190E+01  0.1094700E+02 -0.1027320E+00  0.1049714E+00 -0.2907699E+01  0.1021132E+00  0.2432895E-01
 -0.2145990E+01  0.1078860E+02 -0.1027320E+00  0.1050861E+00 -0.2530309E+01  0.8605630E-01  0.6031091E-01
 -0.3193130E+01  0.1052630E+02 -0.1027320E+00  0.1210563E+00 -0.2203931E+01  0.7162593E-01  0.9759282E-01
 -0.4209520E+01  0.1016270E+02 -0.1027320E+00  0.1478602E+00 -0.1982151E+01  0.5912209E-01  0.1355257E+00
 -0.5185370E+01  0.9701130E+01 -0.1027320E+00  0.1806138E+00 -0.1844161E+01  0.4876087E-01  0.1739073E+00
 -0.6111270E+01  0.9146160E+01 -0.1027320E+00  0.2162373E+00 -0.1759602E+01  0.4058461E-01  0.2123946E+00
 -0.6978330E+01  0.8503120E+01 -0.1027320E+00  0.2527290E+00 -0.1708477E+01  0.3468595E-01  0.2503375E+00
 -0.7778170E+01  0.7778170E+01 -0.1027320E+00  0.2888162E+00 -0.1678110E+01  0.3093442E-01  0.2871548E+00
 -0.8503120E+01  0.6978330E+01 -0.1027320E+00  0.3237296E+00 -0.1661388E+01  0.2928715E-01  0.3224021E+00
 -0.9146170E+01  0.6111270E+01 -0.1027320E+00  0.3572859E+00 -0.1653520E+01  0.2952212E-01  0.3560641E+00
 -0.9701130E+01  0.5185360E+01 -0.1027320E+00  0.3888374E+00 -0.1651501E+01  0.3134696E-01  0.3875718E+00
 -0.1016270E+02  0.4209520E+01 -0.1027320E+00  0.4180275E+00 -0.1653055E+01  0.3434778E-01  0.4166140E+00
 -0.1052630E+02  0.3193130E+01 -0.1027320E+00  0.4443106E+00 -0.1657056E+01  0.3827871E-01  0.4426587E+00
 -0.1078860E+02  0.2145990E+01 -0.1027320E+00  0.4680305E+00 -0.1662486E+01  0.4285354E-01  0.4660645E+00
 -0.1094700E+02  0.1078190E+01 -0.1027320E+00  0.4887958E+00 -0.1668395E+01  0.4763031E-01  0.4864696E+00
 -0.1100000E+02 -0.9616510E-06 -0.1027320E+00  0.5065514E+00 -0.1674065E+01  0.5221801E-01  0.5038528E+00
 -0.1094700E+02 -0.1078190E+01 -0.1027320E+00  0.5206819E+00 -0.1679202E+01  0.5633427E-01  0.5176254E+00
 -0.1078860E+02 -0.2146000E+01 -0.1027320E+00  0.5317769E+00 -0.1683554E+01  0.5983482E-01  0.5283999E+00
 -0.1052630E+02 -0.3193130E+01 -0.1027320E+00  0.5395869E+00 -0.1686725E+01  0.6241331E-01  0.5359651E+00
 -0.1016270E+02 -0.4209520E+01 -0.1027320E+00  0.5442146E+00 -0.1688553E+01  0.6393711E-01  0.5404457E+00
 -0.9701130E+01 -0.5185360E+01 -0.1027320E+00  0.5449886E+00 -0.1688964E+01  0.6425052E-01  0.5411880E+00
 -0.9146160E+01 -0.6111270E+01 -0.1027320E+00  0.5425833E+00 -0.1687967E+01  0.6342973E-01  0.5388630E+00
 -0.8503110E+01 -0.6978330E+01 -0.1027320E+00  0.5368501E+00 -0.1685556E+01  0.6147374E-01  0.5333189E+00
 -0.7778170E+01 -0.7778180E+01 -0.1027320E+00  0.5279981E+00 -0.1681970E+01  0.5857876E-01  0.5247385E+00
 -0.6978330E+01 -0.8503110E+01 -0.1027320E+00  0.5153826E+00 -0.1677326E+01  0.5479978E-01  0.5124610E+00
 -0.6111270E+01 -0.9146170E+01 -0.1027320E+00  0.4996532E+00 -0.1671814E+01  0.5038781E-01  0.4971060E+00
 -0.5185360E+01 -0.9701130E+01 -0.1027320E+00  0.4807878E+00 -0.1665887E+01  0.4564933E-01  0.4786157E+00
 -0.4209510E+01 -0.1016270E+02 -0.1027320E+00  0.4591126E+00 -0.1660222E+01  0.4100163E-01  0.4572781E+00
 -0.3193130E+01 -0.1052630E+02 -0.1027320E+00  0.4341655E+00 -0.1655412E+01  0.3669345E-01  0.4326122E+00
 -0.2145990E+01 -0.1078860E+02 -0.1027320E+00  0.4065091E+00 -0.1652080E+01  0.3300610E-01  0.4051670E+00
 -0.1078190E+01 -0.1094700E+02 -0.1027320E+00  0.3763602E+00 -0.1651612E+01  0.3038261E-01  0.3751318E+00
  0.1311740E-06 -0.1100000E+02 -0.1027320E+00  0.3442359E+00 -0.1655756E+01  0.2921115E-01  0.3429942E+00
  0.1078190E+01 -0.1094700E+02 -0.1027320E+00  0.3100486E+00 -0.1666953E+01  0.2976737E-01  0.3086163E+00
  0.2145990E+01 -0.1078860E+02 -0.1027320E+00  0.2743831E+00 -0.1688392E+01  0.3219194E-01  0.2724881E+00
  0.3193140E+01 -0.1052630E+02 -0.1027320E+00  0.2379555E+00 -0.1725900E+01  0.3675990E-01  0.2350989E+00
  0.4209520E+01 -0.1016270E+02 -0.1027320E+00  0.2018511E+00 -0.1788251E+01  0.4354829E-01  0.1970974E+00
  0.5185360E+01 -0.9701130E+01 -0.1027320E+00  0.1672102E+00 -0.1891040E+01  0.5263738E-01  0.1587091E+00
  0.6111270E+01 -0.9146160E+01 -0.1027320E+00  0.1361827E+00 -0.2059280E+01  0.6390882E-01  0.1202555E+00
  0.6978330E+01 -0.8503110E+01 -0.1027320E+00  0.1129310E+00 -0.2323898E+01  0.7723403E-01  0.8239117E-01
  0.7778180E+01 -0.7778170E+01 -0.1027320E+00  0.1029657E+00 -0.2681825E+01  0.9227334E-01  0.4568999E-01
  0.8503120E+01 -0.6978320E+01 -0.1027320E+00  0.1093121E+00 -0.3044363E+01  0.1087959E+00  0.1061159E-01
  0.9146170E+01 -0.6111270E+01 -0.1027320E+00  0.1285326E+00  0.2962827E+01  0.1264842E+00 -0.2285503E-01
  0.9701130E+01 -0.5185360E+01 -0.1027320E+00  0.1546220E+00  0.2783833E+01  0.1448319E+00 -0.5414503E-01
  0.1016270E+02 -0.4209520E+01 -0.1027320E+00  0.1831299E+00  0.2671455E+01  0.1632614E+00 -0.8295943E-01
  0.1052630E+02 -0.3193130E+01 -0.1027320E+00  0.2114296E+00  0.2601316E+01  0.1813148E+00 -0.1087538E+00
  0.1078860E+02 -0.2145990E+01 -0.1027320E+00  0.2384964E+00  0.2555485E+01  0.1986914E+00 -0.1319177E+00
  0.1094700E+02 -0.1078180E+01 -0.1027320E+00  0.2631752E+00  0.2525413E+01  0.2147752E+00 -0.1520946E+00
  0.1100000E+02  0.0000000E+00 -0.2310450E+00  0.2830299E+00  0.2505038E+01  0.2275982E+00 -0.1682409E+00
  0.1094700E+02  0.1078190E+01 -0.2310450E+00  0.3008010E+00  0.2492406E+01  0.2396108E+00 -0.1818459E+00
  0.1078860E+02  0.2145990E+01 -0.2310450E+00  0.3149067E+00  0.2484128E+01  0.2492626E+00 -0.1924434E+00
  0.1052630E+02  0.3193130E+01 -0.2310450E+00  0.3248662E+00  0.2479124E+01  0.2561493E+00 -0.1998140E+00
  0.1016270E+02  0.4209520E+01 -0.2310450E+00  0.3306437E+00  0.2476298E+01  0.2601290E+00 -0.2041033E+00
  0.9701130E+01  0.5185360E+01 -0.2310450E+00  0.3318469E+00  0.2475974E+01  0.2610091E+00 -0.2049307E+00
  0.9146170E+01  0.6111270E+01 -0.2310450E+00  0.3287884E+00  0.2477316E+01  0.2588757E+00 -0.2026947E+00
  0.8503110E+01  0.6978330E+01 -0.2310450E+00  0.3213469E+00  0.2480794E+01  0.2537041E+00 -0.1972258E+00
  0.7778170E+01  0.7778170E+01 -0.2310450E+00  0.3098600E+00  0.2486735E+01  0.2457606E+00 -0.1887192E+00
  0.6978330E+01  0.8503110E+01 -0.2310450E+00  0.2941619E+00  0.2496917E+01  0.2351220E+00 -0.1767735E+00
  0.6111270E+01  0.9146170E+01 -0.2310450E+00  0.2747759E+00  0.2512202E+01  0.2221251E+00 -0.1617474E+00
  0.5185360E+01  0.9701130E+01 -0.2310450E+00  0.2520179E+00  0.2535519E+01  0.2071312E+00 -0.1435608E+00
  0.4209520E+01  0.1016270E+02 -0.2310450E+00  0.2266528E+00  0.2570597E+01  0.1906973E+00 -0.1224991E+00
  0.3193130E+01  0.1052630E+02 -0.2310450E+00  0.1990827E+00  0.2625188E+01  0.1731223E+00 -0.9829845E-01
  0.2145990E+01  0.1078860E+02 -0.2310450E+00  0.1704843E+00  0.2710104E+01  0.1548584E+00 -0.7130048E-01
  0.1078190E+01  0.1094700E+02 -0.2310450E+00  0.1426944E+00  0.2845284E+01  0.1364758E+00 -0.4166560E-01
 -0.4808250E-06  0.1100000E+02 -0.2310450E+00  0.1189637E+00  0.3058523E+01  0.1185535E+00 -0.9870857E-02
 -0.1078190E+01  0.1094700E+02 -0.2310450E+00  0.1042513E+00 -0.2908483E+01  0.1014316E+00  0.2408253E-01
 -0.2145990E+01  0.1078860E+02 -0.2310450E+00  0.1043259E+00 -0.2531020E+01  0.8547627E-01  0.5981387E-01
 -0.3193130E+01  0.1052630E+02 -0.2310450E+00  0.1201843E+00 -0.2204323E+01  0.7114796E-01  0.9686196E-01
 -0.4209520E+01  0.1016270E+02 -0.2310450E+00  0.1468531E+00 -0.1982321E+01  0.5874230E-01  0.1345926E+00
 -0.5185370E+01  0.9701130E+01 -0.2310450E+00  0.1794051E+00 -0.1844095E+01  0.4842302E-01  0.1727467E+00
 -0.6111270E+01  0.9146160E+01 -0.2310450E+00  0.2147975E+00 -0.1759501E+01  0.4029324E-01  0.2109845E+00
 -0.6978330E+01  0.8503120E+01 -0.2310450E+00  0.2510461E+00 -0.1708428E+01  0.3444294E-01  0.2486721E+00
 -0.7778170E+01  0.7778170E+01 -0.2310450E+00  0.2868970E+00 -0.1678169E+01  0.3074560E-01  0.2852448E+00
 -0.8503120E+01  0.6978330E+01 -0.2310450E+00  0.3216476E+00 -0.1661385E+01  0.2909784E-01  0.3203288E+00
 -0.9146170E+01  0.6111270E+01 -0.2310450E+00  0.3550025E+00 -0.1653500E+01  0.2932670E-01  0.3537891E+00
 -0.9701130E+01  0.5185360E+01 -0.2310450E+00  0.3863254E+00 -0.1651504E+01  0.3114550E-01  0.3850679E+00
 -0.1016270E+02  0.4209520E+01 -0.2310450E+00  0.4152758E+00 -0.1653121E+01  0.3414889E-01  0.4138693E+00
 -0.1052630E+02  0.3193130E+01 -0.2310450E+00  0.4414825E+00 -0.1657124E+01  0.3806481E-01  0.4398385E+00
 -0.1078860E+02  0.2145990E+01 -0.2310450E+00  0.4650789E+00 -0.1662546E+01  0.4261088E-01  0.4631228E+00
 -0.1094700E+02  0.1078190E+01 -0.2310450E+00  0.4856737E+00 -0.1668456E+01  0.4735537E-01  0.4833595E+00
 -0.1100000E+02 -0.9616510E-06 -0.2310450E+00  0.5032272E+00 -0.1674142E+01  0.5191361E-01  0.5005423E+00
 -0.1094700E+02 -0.1078190E+01 -0.2310450E+00  0.5173758E+00 -0.1679304E+01  0.5602908E-01  0.5143331E+00
 -0.1078860E+02 -0.2146000E+01 -0.2310450E+00  0.5284378E+00 -0.1683657E+01  0.5951322E-01  0.5250759E+00
 -0.1052630E+02 -0.3193130E+01 -0.2310450E+00  0.5361564E+00 -0.1686822E+01  0.6206830E-01  0.5325516E+00
 -0.1016270E+02 -0.4209520E+01 -0.2310450E+00  0.5406463E+00 -0.1688635E+01  0.6356175E-01  0.5368969E+00
 -0.9701130E+01 -0.5185360E+01 -0.2310450E+00  0.5415269E+00 -0.1689069E+01  0.6389850E-01  0.5377438E+00
 -0.9146160E+01 -0.6111270E+01 -0.2310450E+00  0.5391786E+00 -0.1688078E+01  0.6309101E-01  0.5354747E+00
 -0.8503110E+01 -0.6978330E+01 -0.2310450E+00  0.5334424E+00 -0.1685663E+01  0.6113981E-01  0.5299271E+00
 -0.7778170E+01 -0.7778180E+01 -0.2310450E+00  0.5245358E+00 -0.1682049E+01  0.5823587E-01  0.5212930E+00
 -0.6978330E+01 -0.8503110E+01 -0.2310450E+00  0.5120988E+00 -0.1677404E+01  0.5449050E-01  0.5091915E+00
 -0.6111270E+01 -0.9146170E+01 -0.2310450E+00  0.4965092E+00 -0.1671895E+01  0.5011111E-01  0.4939739E+00
 -0.5185360E+01 -0.9701130E+01 -0.2310450E+00  0.4777316E+00 -0.1665972E+01  0.4539967E-01  0.4755695E+00
 -0.4209510E+01 -0.1016270E+02 -0.2310450E+00  0.4560948E+00 -0.1660292E+01  0.4076407E-01  0.4542695E+00
 -0.3193130E+01 -0.1052630E+02 -0.2310450E+00  0.4313768E+00 -0.1655440E+01  0.3646970E-01  0.4298324E+00
 -0.2145990E+01 -0.1078860E+02 -0.2310450E+00  0.4039291E+00 -0.1652096E+01  0.3280329E-01  0.4025949E+00
 -0.1078190E+01 -0.1094700E+02 -0.2310450E+00  0.3739535E+00 -0.1651641E+01  0.3019935E-01  0.3727321E+00
  0.1311740E-06 -0.1100000E+02 -0.2310450E+00  0.3419596E+00 -0.1655815E+01  0.2903793E-01  0.3407245E+00
  0.1078190E+01 -0.1094700E+02 -0.2310450E+00  0.3080166E+00 -0.1666919E+01  0.2956179E-01  0.3065947E+00
  0.2145990E+01 -0.1078860E+02 -0.2310450E+00  0.2725971E+00 -0.1688314E+01  0.3196141E-01  0.2707169E+00
  0.3193140E+01 -0.1052630E+02 -0.2310450E+00  0.2363990E+00 -0.1725842E+01  0.3650595E-01  0.2335633E+00
  0.4209520E+01 -0.1016270E+02 -0.2310450E+00  0.2004925E+00 -0.1788336E+01  0.4327189E-01  0.1957672E+00
  0.5185360E+01 -0.9701130E+01 -0.2310450E+00  0.1660478E+00 -0.1891080E+01  0.5227774E-01  0.1576036E+00
  0.6111270E+01 -0.9146160E+01 -0.2310450E+00  0.1352182E+00 -0.2059362E+01  0.6346604E-01  0.1193986E+00
  0.6978330E+01 -0.8503110E+01 -0.2310450E+00  0.1121339E+00 -0.2324151E+01  0.7670967E-01  0.8179024E-01
  0.7778180E+01 -0.7778170E+01 -0.2310450E+00  0.1022735E+00 -0.2682341E+01  0.9167640E-01  0.4533549E-01
  0.8503120E+01 -0.6978320E+01 -0.2310450E+00  0.1085908E+00 -0.3045522E+01  0.1080901E+00  0.1041636E-01
  0.9146170E+01 -0.6111270E+01 -0.2310450E+00  0.1277203E+00  0.2961709E+01  0.1256595E+00 -0.2285108E-01
  0.9701130E+01 -0.5185360E+01 -0.2310450E+00  0.1536547E+00  0.2783098E+01  0.1438863E+00 -0.5391209E-01
  0.1016270E+02 -0.4209520E+01 -0.2310450E+00  0.1819721E+00  0.2671154E+01  0.1622044E+00 -0.8248383E-01
  0.1052630E+02 -0.3193130E+01 -0.2310450E+00  0.2101659E+00  0.2600739E+01  0.1801689E+00 -0.1082076E+00
  0.1078860E+02 -0.2145990E+01 -0.2310450E+00  0.2370838E+00  0.2554899E+01  0.1974376E+00 -0.1312522E+00
  0.1094700E+02 -0.1078180E+01 -0.2310450E+00  0.2615764E+00  0.2524987E+01  0.2134061E+00 -0.1512616E+00
  0.1100000E+02  0.0000000E+00 -0.4105000E+00  0.2804878E+00  0.2504873E+01  0.2255263E+00 -0.1667672E+00
  0.1094700E+02  0.1078190E+01 -0.4105000E+00  0.2981766E+00  0.2492094E+01  0.2374641E+00 -0.1803334E+00
  0.1078860E+02  0.2145990E+01 -0.4105000E+00  0.3121601E+00  0.2483806E+01  0.2470270E+00 -0.1908444E+00
  0.1052630E+02  0.3193130E+01 -0.4105000E+00  0.3220132E+00  0.2478832E+01  0.2538419E+00 -0.1981334E+00
  0.1016270E+02  0.4209520E+01 -0.4105000E+00  0.3276634E+00  0.2476148E+01  0.2577539E+00 -0.2023023E+00
  0.9701130E+01  0.5185360E+01 -0.4105000E+00  0.3289360E+00  0.2475689E+01  0.2586617E+00 -0.2032068E+00
  0.9146170E+01  0.6111270E+01 -0.4105000E+00  0.3259178E+00  0.2477004E+01  0.2565529E+00 -0.2010050E+00
  0.8503110E+01  0.6978330E+01 -0.4105000E+00  0.3185354E+00  0.2480502E+01  0.2514273E+00 -0.1955737E+00
  0.7778170E+01  0.7778170E+01 -0.4105000E+00  0.3070716E+00  0.2486579E+01  0.2435200E+00 -0.1870587E+00
  0.6978330E+01  0.8503110E+01 -0.4105000E+00  0.2915767E+00  0.2496597E+01  0.2329996E+00 -0.1752944E+00
  0.6111270E+01  0.9146170E+01 -0.4105000E+00  0.2723847E+00  0.2511830E+01  0.2201325E+00 -0.1604217E+00
  0.5185360E+01  0.9701130E+01 -0.4105000E+00  0.2498326E+00  0.2535142E+01  0.2052815E+00 -0.1423932E+00
  0.4209520E+01  0.1016270E+02 -0.4105000E+00  0.2246281E+00  0.2570394E+01  0.1889692E+00 -0.1214431E+00
  0.3193130E+01  0.1052630E+02 -0.4105000E+00  0.1973332E+00  0.2624733E+01  0.1715566E+00 -0.9751274E-01
  0.2145990E+01  0.1078860E+02 -0.4105000E+00  0.1690057E+00  0.2709487E+01  0.1534717E+00 -0.7077690E-01
  0.1078190E+01  0.1094700E+02 -0.4105000E+00  0.1414636E+00  0.2844502E+01  0.1352664E+00 -0.4141197E-01
 -0.4808250E-06  0.1100000E+02 -0.4105000E+00  0.1179099E+00  0.3058026E+01  0.1174984E+00 -0.9841887E-02
 -0.1078190E+01  0.1094700E+02 -0.4105000E+00  0.1032949E+00 -0.2909234E+01  0.1005190E+00  0.2378613E-01
 -0.2145990E+01  0.1078860E+02 -0.4105000E+00  0.1033389E+00 -0.2531857E+01  0.8471719E-01  0.5917708E-01
 -0.3193130E+01  0.1052630E+02 -0.4105000E+00  0.1190249E+00 -0.2205003E+01  0.7052690E-01  0.9587958E-01
 -0.4209520E+01  0.1016270E+02 -0.4105000E+00  0.1454731E+00 -0.1982728E+01  0.5824459E-01  0.1333041E+00
 -0.5185370E+01  0.9701130E+01 -0.4105000E+00  0.1777373E+00 -0.1844274E+01  0.4800354E-01  0.1711321E+00
 -0.6111270E+01  0.9146160E+01 -0.4105000E+00  0.2127939E+00 -0.1759651E+01  0.3994865E-01  0.2090104E+00
 -0.6978330E+01  0.8503120E+01 -0.4105000E+00  0.2486973E+00 -0.1708560E+01  0.3415327E-01  0.2463410E+00
 -0.7778170E+01  0.7778170E+01 -0.4105000E+00  0.2842244E+00 -0.1678349E+01  0.3051016E-01  0.2825821E+00