 VARIABLES="X" "Y" "Z" "abs(eta) (m)" "angle(phi) (rad)" "PRE1" "PRE2"
ZONE N=   3200 ,E =    3136 ,F=FEPOINT,ET=QUADRILATERAL
  0.1010000E+02  0.0000000E+00  0.0000000E+00  0.4374371E+00 -0.1569202E+01 -0.6973255E-03  0.4374365E+00
  0.1005140E+02  0.9899730E+00  0.0000000E+00  0.4782063E+00 -0.1573460E+01  0.1273823E-02  0.4782046E+00
  0.9905930E+01  0.1970410E+01  0.0000000E+00  0.5160504E+00 -0.1582406E+01  0.5990972E-02  0.5160156E+00
  0.9665100E+01  0.2931880E+01  0.0000000E+00  0.5503645E+00 -0.1593370E+01  0.1242264E-01  0.5502243E+00
  0.9331180E+01  0.3865100E+01  0.0000000E+00  0.5803496E+00 -0.1604625E+01  0.1962859E-01  0.5800176E+00
  0.8907400E+01  0.4761110E+01  0.0000000E+00  0.6069555E+00 -0.1615969E+01  0.2740831E-01  0.6063364E+00
  0.8397840E+01  0.5611260E+01  0.0000000E+00  0.6296870E+00 -0.1627178E+01  0.3548392E-01  0.6286864E+00
  0.7807410E+01  0.6407370E+01  0.0000000E+00  0.6484432E+00 -0.1637155E+01  0.4299822E-01  0.6470160E+00
  0.7141780E+01  0.7141780E+01  0.0000000E+00  0.6628097E+00 -0.1644989E+01  0.4913074E-01  0.6609863E+00
  0.6407370E+01  0.7807410E+01  0.0000000E+00  0.6737258E+00 -0.1651059E+01  0.5401712E-01  0.6715568E+00
  0.5611260E+01  0.8397840E+01  0.0000000E+00  0.6804988E+00 -0.1655060E+01  0.5727316E-01  0.6780843E+00
  0.4761110E+01  0.8907410E+01  0.0000000E+00  0.6832830E+00 -0.1656804E+01  0.5869538E-01  0.6807573E+00
  0.3865100E+01  0.9331180E+01  0.0000000E+00  0.6818365E+00 -0.1656028E+01  0.5804397E-01  0.6793614E+00
  0.2931870E+01  0.9665100E+01  0.0000000E+00  0.6769702E+00 -0.1653124E+01  0.5567078E-01  0.6746773E+00
  0.1970410E+01  0.9905930E+01  0.0000000E+00  0.6678036E+00 -0.1647670E+01  0.5128580E-01  0.6658314E+00
  0.9899730E+00  0.1005140E+02  0.0000000E+00  0.6546434E+00 -0.1640202E+01  0.4539939E-01  0.6530673E+00
 -0.4414850E-06  0.1010000E+02  0.0000000E+00  0.6374137E+00 -0.1631244E+01  0.3850681E-01  0.6362495E+00
 -0.9899740E+00  0.1005140E+02  0.0000000E+00  0.6167230E+00 -0.1621035E+01  0.3096999E-01  0.6159449E+00
 -0.1970410E+01  0.9905930E+01  0.0000000E+00  0.5916108E+00 -0.1609321E+01  0.2278593E-01  0.5911719E+00
 -0.2931880E+01  0.9665100E+01  0.0000000E+00  0.5626073E+00 -0.1597269E+01  0.1489219E-01  0.5624102E+00
 -0.3865100E+01  0.9331180E+01  0.0000000E+00  0.5299824E+00 -0.1586455E+01  0.8298732E-02  0.5299175E+00
 -0.4761110E+01  0.8907400E+01  0.0000000E+00  0.4941544E+00 -0.1577246E+01  0.3187088E-02  0.4941441E+00
 -0.5611260E+01  0.8397840E+01  0.0000000E+00  0.4542576E+00 -0.1570532E+01 -0.1201575E-03  0.4542576E+00
 -0.6407370E+01  0.7807410E+01  0.0000000E+00  0.4113081E+00 -0.1568788E+01 -0.8259947E-03  0.4113073E+00
 -0.7141780E+01  0.7141780E+01  0.0000000E+00  0.3662225E+00 -0.1576158E+01  0.1963663E-02  0.3662173E+00
 -0.7807410E+01  0.6407370E+01  0.0000000E+00  0.3193712E+00 -0.1596172E+01  0.8103449E-02  0.3192684E+00
 -0.8397840E+01  0.5611260E+01  0.0000000E+00  0.2707047E+00 -0.1637446E+01  0.1802901E-01  0.2701037E+00
 -0.8907410E+01  0.4761110E+01  0.0000000E+00  0.2224395E+00 -0.1713999E+01  0.3174519E-01  0.2201626E+00
 -0.9331180E+01  0.3865100E+01  0.0000000E+00  0.1778736E+00 -0.1851876E+01  0.4934094E-01  0.1708932E+00
 -0.9665100E+01  0.2931880E+01  0.0000000E+00  0.1410022E+00 -0.2093415E+01  0.7038143E-01  0.1221805E+00
 -0.9905930E+01  0.1970410E+01  0.0000000E+00  0.1205567E+00 -0.2479242E+01  0.9506480E-01  0.7413905E-01
 -0.1005140E+02  0.9899730E+00  0.0000000E+00  0.1255962E+00 -0.2916204E+01  0.1224195E+00  0.2806883E-01
 -0.1010000E+02 -0.8829700E-06  0.0000000E+00  0.1522663E+00  0.3044682E+01  0.1515518E+00 -0.1473318E-01
 -0.1005140E+02 -0.9899740E+00  0.0000000E+00  0.1901349E+00  0.2848732E+01  0.1820393E+00 -0.5489038E-01
 -0.9905930E+01 -0.1970410E+01  0.0000000E+00  0.2326224E+00  0.2734932E+01  0.2136513E+00 -0.9201257E-01
 -0.9665100E+01 -0.2931880E+01  0.0000000E+00  0.2752444E+00  0.2668210E+01  0.2449761E+00 -0.1254837E+00
 -0.9331180E+01 -0.3865100E+01  0.0000000E+00  0.3151208E+00  0.2629048E+01  0.2746275E+00 -0.1545342E+00
 -0.8907400E+01 -0.4761110E+01  0.0000000E+00  0.3521189E+00  0.2604483E+01  0.3025374E+00 -0.1801633E+00
 -0.8397840E+01 -0.5611260E+01  0.0000000E+00  0.3852515E+00  0.2590101E+01  0.3281356E+00 -0.2018558E+00
 -0.7807400E+01 -0.6407370E+01  0.0000000E+00  0.4134774E+00  0.2581711E+01  0.3503469E+00 -0.2195919E+00
 -0.7141780E+01 -0.7141780E+01  0.0000000E+00  0.4356429E+00  0.2577097E+01  0.3680567E+00 -0.2330644E+00
 -0.6407370E+01 -0.7807410E+01  0.0000000E+00  0.4525708E+00  0.2574065E+01  0.3816225E+00 -0.2432789E+00
 -0.5611260E+01 -0.8397850E+01  0.0000000E+00  0.4633220E+00  0.2572749E+01  0.3903601E+00 -0.2495721E+00
 -0.4761110E+01 -0.8907410E+01  0.0000000E+00  0.4678140E+00  0.2572378E+01  0.3940511E+00 -0.2521381E+00
 -0.3865100E+01 -0.9331190E+01  0.0000000E+00  0.4656406E+00  0.2572874E+01  0.3923449E+00 -0.2507721E+00
 -0.2931870E+01 -0.9665100E+01  0.0000000E+00  0.4577793E+00  0.2573534E+01  0.3858837E+00 -0.2462839E+00
 -0.1970410E+01 -0.9905930E+01  0.0000000E+00  0.4432711E+00  0.2575436E+01  0.3741069E+00 -0.2377674E+00
 -0.9899710E+00 -0.1005140E+02  0.0000000E+00  0.4228270E+00  0.2579244E+01  0.3577138E+00 -0.2254406E+00
  0.1204410E-06 -0.1010000E+02  0.0000000E+00  0.3968823E+00  0.2586534E+01  0.3372981E+00 -0.2091543E+00
  0.9899760E+00 -0.1005140E+02  0.0000000E+00  0.3663394E+00  0.2597947E+01  0.3135238E+00 -0.1894924E+00
  0.1970410E+01 -0.9905930E+01  0.0000000E+00  0.3305677E+00  0.2617509E+01  0.2861998E+00 -0.1654226E+00
  0.2931880E+01 -0.9665100E+01  0.0000000E+00  0.2910830E+00  0.2650062E+01  0.2566222E+00 -0.1373841E+00
  0.3865100E+01 -0.9331180E+01  0.0000000E+00  0.2495387E+00  0.2704624E+01  0.2260918E+00 -0.1056034E+00
  0.4761110E+01 -0.8907410E+01  0.0000000E+00  0.2074315E+00  0.2794552E+01  0.1950651E+00 -0.7055082E-01
  0.5611260E+01 -0.8397840E+01  0.0000000E+00  0.1667492E+00  0.2952551E+01  0.1637785E+00 -0.3133520E-01
  0.6407370E+01 -0.7807410E+01  0.0000000E+00  0.1339688E+00 -0.3059129E+01  0.1335135E+00  0.1103511E-01
  0.7141780E+01 -0.7141780E+01  0.0000000E+00  0.1193667E+00 -0.2656505E+01  0.1055959E+00  0.5565904E-01
  0.7807410E+01 -0.6407370E+01  0.0000000E+00  0.1298576E+00 -0.2235365E+01  0.8008573E-01  0.1022217E+00
  0.8397840E+01 -0.5611260E+01  0.0000000E+00  0.1616900E+00 -0.1934086E+01  0.5745675E-01  0.1511370E+00
  0.8907410E+01 -0.4761110E+01  0.0000000E+00  0.2045888E+00 -0.1758787E+01  0.3823455E-01  0.2009843E+00
  0.9331180E+01 -0.3865100E+01  0.0000000E+00  0.2513728E+00 -0.1662537E+01  0.2302868E-01  0.2503157E+00
  0.9665100E+01 -0.2931870E+01  0.0000000E+00  0.2994154E+00 -0.1609236E+01  0.1150662E-01  0.2991942E+00
  0.9905930E+01 -0.1970410E+01  0.0000000E+00  0.3475720E+00 -0.1582341E+01  0.4012550E-02  0.3475488E+00
  0.1005140E+02 -0.9899690E+00  0.0000000E+00  0.3940722E+00 -0.1570977E+01  0.7102461E-04  0.3940722E+00
  0.1010000E+02  0.0000000E+00 -0.2568960E-01  0.4367519E+00 -0.1569211E+01 -0.6925903E-03  0.4367514E+00
  0.1005140E+02  0.9899730E+00 -0.2568960E-01  0.4774723E+00 -0.1573467E+01  0.1275385E-02  0.4774706E+00
  0.9905930E+01  0.1970410E+01 -0.2568960E-01  0.5152027E+00 -0.1582436E+01  0.5996704E-02  0.5151678E+00
  0.9665100E+01  0.2931880E+01 -0.2568960E-01  0.5495240E+00 -0.1593390E+01  0.1241456E-01  0.5493838E+00
  0.9331180E+01  0.3865100E+01 -0.2568960E-01  0.5794516E+00 -0.1604650E+01  0.1961276E-01  0.5791196E+00
  0.8907400E+01  0.4761110E+01 -0.2568960E-01  0.6060332E+00 -0.1616001E+01  0.2738621E-01  0.6054141E+00
  0.8397840E+01  0.5611260E+01 -0.2568960E-01  0.6286530E+00 -0.1627200E+01  0.3543978E-01  0.6276532E+00
  0.7807410E+01  0.6407370E+01 -0.2568960E-01  0.6474583E+00 -0.1637194E+01  0.4295796E-01  0.6460316E+00
  0.7141780E+01  0.7141780E+01 -0.2568960E-01  0.6617879E+00 -0.1645025E+01  0.4907881E-01  0.6599655E+00
  0.6407370E+01  0.7807410E+01 -0.2568960E-01  0.6727025E+00 -0.1651103E+01  0.5396473E-01  0.6705344E+00
  0.5611260E+01  0.8397840E+01 -0.2568960E-01  0.6793835E+00 -0.1655079E+01  0.5719230E-01  0.6769719E+00
  0.4761110E+01  0.8907410E+01 -0.2568960E-01  0.6822478E+00 -0.1656850E+01  0.5863747E-01  0.6797233E+00
  0.3865100E+01  0.9331180E+01 -0.2568960E-01  0.6807867E+00 -0.1656067E+01  0.5798052E-01  0.6783131E+00
  0.2931870E+01  0.9665100E+01 -0.2568960E-01  0.6759429E+00 -0.1653169E+01  0.5561621E-01  0.6736510E+00
  0.1970410E+01  0.9905930E+01 -0.2568960E-01  0.6667078E+00 -0.1647690E+01  0.5121529E-01  0.6647377E+00
  0.9899730E+00  0.1005140E+02 -0.2568960E-01  0.6536484E+00 -0.1640243E+01  0.4535693E-01  0.6520728E+00
 -0.4414850E-06  0.1010000E+02 -0.2568960E-01  0.6364300E+00 -0.1631277E+01  0.3846820E-01  0.6352663E+00
 -0.9899740E+00  0.1005140E+02 -0.2568960E-01  0.6157855E+00 -0.1621067E+01  0.3094270E-01  0.6150076E+00
 -0.1970410E+01  0.9905930E+01 -0.2568960E-01  0.5906392E+00 -0.1609345E+01  0.2276294E-01  0.5902004E+00
 -0.2931880E+01  0.9665100E+01 -0.2568960E-01  0.5617492E+00 -0.1597293E+01  0.1488276E-01  0.5615520E+00
 -0.3865100E+01  0.9331180E+01 -0.2568960E-01  0.5291603E+00 -0.1586475E+01  0.8296377E-02  0.5290952E+00
 -0.4761110E+01  0.8907400E+01 -0.2568960E-01  0.4933962E+00 -0.1577254E+01  0.3186311E-02  0.4933859E+00
 -0.5611260E+01  0.8397840E+01 -0.2568960E-01  0.4535118E+00 -0.1570567E+01 -0.1040710E-03  0.4535118E+00
 -0.6407370E+01  0.7807410E+01 -0.2568960E-01  0.4106713E+00 -0.1568782E+01 -0.8274030E-03  0.4106704E+00
 -0.7141780E+01  0.7141780E+01 -0.2568960E-01  0.3656437E+00 -0.1576159E+01  0.1960800E-02  0.3656384E+00
 -0.7807410E+01  0.6407370E+01 -0.2568960E-01  0.3188647E+00 -0.1596148E+01  0.8082761E-02  0.3187622E+00
 -0.8397840E+01  0.5611260E+01 -0.2568960E-01  0.2702601E+00 -0.1637511E+01  0.1801692E-01  0.2696589E+00
 -0.8907410E+01  0.4761110E+01 -0.2568960E-01  0.2220723E+00 -0.1713967E+01  0.3168581E-01  0.2198002E+00
 -0.9331180E+01  0.3865100E+01 -0.2568960E-01  0.1775723E+00 -0.1851898E+01  0.4926107E-01  0.1706027E+00
 -0.9665100E+01  0.2931880E+01 -0.2568960E-01  0.1407496E+00 -0.2093487E+01  0.7026409E-01  0.1219566E+00
 -0.9905930E+01  0.1970410E+01 -0.2568960E-01  0.1203721E+00 -0.2479349E+01  0.9492721E-01  0.7401530E-01
 -0.1005140E+02  0.9899730E+00 -0.2568960E-01  0.1253881E+00 -0.2916537E+01  0.1222261E+00  0.2798165E-01
 -0.1010000E+02 -0.8829700E-06 -0.2568960E-01  0.1520356E+00  0.3044429E+01  0.1513185E+00 -0.1474908E-01
 -0.1005140E+02 -0.9899740E+00 -0.2568960E-01  0.1898601E+00  0.2848471E+01  0.1817619E+00 -0.5485862E-01
 -0.9905930E+01 -0.1970410E+01 -0.2568960E-01  0.2322585E+00  0.2734954E+01  0.2133191E+00 -0.9186396E-01
 -0.9665100E+01 -0.2931880E+01 -0.2568960E-01  0.2748553E+00  0.2668041E+01  0.2446087E+00 -0.1253477E+00
 -0.9331180E+01 -0.3865100E+01 -0.2568960E-01  0.3146657E+00  0.2628940E+01  0.2742143E+00 -0.1543407E+00
 -0.8907400E+01 -0.4761110E+01 -0.2568960E-01  0.3516241E+00  0.2604361E+01  0.3020904E+00 -0.1799469E+00
 -0.8397840E+01 -0.5611260E+01 -0.2568960E-01  0.3846359E+00  0.2590120E+01  0.3276150E+00 -0.2015271E+00
 -0.7807400E+01 -0.6407370E+01 -0.2568960E-01  0.4128944E+00  0.2581615E+01  0.3498318E+00 -0.2193159E+00
 -0.7141780E+01 -0.7141780E+01 -0.2568960E-01  0.4350100E+00  0.2577029E+01  0.3675061E+00 -0.2327510E+00
 -0.6407370E+01 -0.7807410E+01 -0.2568960E-01  0.4519321E+00  0.2573983E+01  0.3810639E+00 -0.2429670E+00
 -0.5611260E+01 -0.8397850E+01 -0.2568960E-01  0.4625776E+00  0.2572766E+01  0.3897372E+00 -0.2491645E+00
 -0.4761110E+01 -0.8907410E+01 -0.2568960E-01  0.4671534E+00  0.2572299E+01  0.3934749E+00 -0.2518130E+00
 -0.3865100E+01 -0.9331190E+01 -0.2568960E-01  0.4649642E+00  0.2572814E+01  0.3917598E+00 -0.2504315E+00
 -0.2931870E+01 -0.9665100E+01 -0.2568960E-01  0.4571324E+00  0.2573452E+01  0.3853181E+00 -0.2459674E+00
 -0.1970410E+01 -0.9905930E+01 -0.2568960E-01  0.4425593E+00  0.2575454E+01  0.3735105E+00 -0.2373788E+00
 -0.9899710E+00 -0.1005140E+02 -0.2568960E-01  0.4222314E+00  0.2579152E+01  0.3571891E+00 -0.2251561E+00
  0.1204410E-06 -0.1010000E+02 -0.2568960E-01  0.3963070E+00  0.2586455E+01  0.3367927E+00 -0.2088777E+00
  0.9899760E+00 -0.1005140E+02 -0.2568960E-01  0.3658231E+00  0.2597832E+01  0.3130601E+00 -0.1892615E+00
  0.1970410E+01 -0.9905930E+01 -0.2568960E-01  0.3300420E+00  0.2617530E+01  0.2857482E+00 -0.1651535E+00
  0.2931880E+01 -0.9665100E+01 -0.2568960E-01  0.2906735E+00  0.2649904E+01  0.2562394E+00 -0.1372314E+00
  0.3865100E+01 -0.9331180E+01 -0.2568960E-01  0.2491775E+00  0.2704479E+01  0.2257491E+00 -0.1054835E+00
  0.4761110E+01 -0.8907410E+01 -0.2568960E-01  0.2071333E+00  0.2794316E+01  0.1947680E+00 -0.7049537E-01
  0.5611260E+01 -0.8397840E+01 -0.2568960E-01  0.1664942E+00  0.2952559E+01  0.1635283E+00 -0.3128599E-01
  0.6407370E+01 -0.7807410E+01 -0.2568960E-01  0.1337557E+00 -0.3059475E+01  0.1333050E+00  0.1097133E-01
  0.7141780E+01 -0.7141780E+01 -0.2568960E-01  0.1191649E+00 -0.2656752E+01  0.1054311E+00  0.5553889E-01
  0.7807410E+01 -0.6407370E+01 -0.2568960E-01  0.1296237E+00 -0.2235488E+01  0.7995404E-01  0.1020277E+00
  0.8397840E+01 -0.5611260E+01 -0.2568960E-01  0.1614297E+00 -0.1934193E+01  0.5738034E-01  0.1508875E+00
  0.8907410E+01 -0.4761110E+01 -0.2568960E-01  0.2042455E+00 -0.1758762E+01  0.3816551E-01  0.2006480E+00
  0.9331180E+01 -0.3865100E+01 -0.2568960E-01  0.2509634E+00 -0.1662531E+01  0.2298987E-01  0.2499082E+00
  0.9665100E+01 -0.2931870E+01 -0.2568960E-01  0.2989386E+00 -0.1609208E+01  0.1147991E-01  0.2987181E+00
  0.9905930E+01 -0.1970410E+01 -0.2568960E-01  0.3470010E+00 -0.1582391E+01  0.4023105E-02  0.3469777E+00
  0.1005140E+02 -0.9899690E+00 -0.2568960E-01  0.3934590E+00 -0.1570966E+01  0.6656090E-04  0.3934590E+00
  0.1010000E+02  0.0000000E+00 -0.1027320E+00  0.4347374E+00 -0.1569162E+01 -0.7104781E-03  0.4347368E+00
  0.1005140E+02  0.9899730E+00 -0.1027320E+00  0.4752392E+00 -0.1573476E+01  0.1273652E-02  0.4752375E+00
  0.9905930E+01  0.1970410E+01 -0.1027320E+00  0.5127589E+00 -0.1582465E+01  0.5983165E-02  0.5127239E+00
  0.9665100E+01  0.2931880E+01 -0.1027320E+00  0.5469597E+00 -0.1593419E+01  0.1237278E-01  0.5468197E+00
  0.9331180E+01  0.3865100E+01 -0.1027320E+00  0.5768167E+00 -0.1604699E+01  0.1955168E-01  0.5764852E+00
  0.8907400E+01  0.4761110E+01 -0.1027320E+00  0.6032169E+00 -0.1616064E+01  0.2729691E-01  0.6025990E+00
  0.8397840E+01  0.5611260E+01 -0.1027320E+00  0.6256806E+00 -0.1627262E+01  0.3531102E-01  0.6246834E+00
  0.7807410E+01  0.6407370E+01 -0.1027320E+00  0.6444502E+00 -0.1637267E+01  0.4280578E-01  0.6430271E+00
  0.7141780E+01  0.7141780E+01 -0.1027320E+00  0.6587908E+00 -0.1645128E+01  0.4892380E-01  0.6569716E+00
  0.6407370E+01  0.7807410E+01 -0.1027320E+00  0.6695831E+00 -0.1651193E+01  0.5377426E-01  0.6674203E+00
  0.5611260E+01  0.8397840E+01 -0.1027320E+00  0.6761736E+00 -0.1655156E+01  0.5697447E-01  0.6737689E+00
  0.4761110E+01  0.8907410E+01 -0.1027320E+00  0.6790826E+00 -0.1656942E+01  0.5842771E-01  0.6765644E+00
  0.3865100E+01  0.9331180E+01 -0.1027320E+00  0.6777041E+00 -0.1656182E+01  0.5779575E-01  0.6752352E+00
  0.2931870E+01  0.9665100E+01 -0.1027320E+00  0.6728062E+00 -0.1653257E+01  0.5541737E-01  0.6705200E+00
  0.1970410E+01  0.9905930E+01 -0.1027320E+00  0.6635577E+00 -0.1647764E+01  0.5102218E-01  0.6615932E+00
  0.9899730E+00  0.1005140E+02 -0.1027320E+00  0.6506162E+00 -0.1640325E+01  0.4520007E-01  0.6490442E+00
 -0.4414850E-06  0.1010000E+02 -0.1027320E+00  0.6335433E+00 -0.1631363E+01  0.3834809E-01  0.6323817E+00
 -0.9899740E+00  0.1005140E+02 -0.1027320E+00  0.6129206E+00 -0.1621126E+01  0.3083485E-01  0.6121445E+00
 -0.1970410E+01  0.9905930E+01 -0.1027320E+00  0.5878438E+00 -0.1609397E+01  0.2268543E-01  0.5874059E+00
 -0.2931880E+01  0.9665100E+01 -0.1027320E+00  0.5591341E+00 -0.1597338E+01  0.1483873E-01  0.5589371E+00
 -0.3865100E+01  0.9331180E+01 -0.1027320E+00  0.5267449E+00 -0.1586490E+01  0.8266220E-02  0.5266801E+00
 -0.4761110E+01  0.8907400E+01 -0.1027320E+00  0.4910839E+00 -0.1577259E+01  0.3173485E-02  0.4910737E+00
 -0.5611260E+01  0.8397840E+01 -0.1027320E+00  0.4513529E+00 -0.1570578E+01 -0.9840923E-04  0.4513529E+00
 -0.6407370E+01  0.7807410E+01 -0.1027320E+00  0.4087399E+00 -0.1568760E+01 -0.8322335E-03  0.4087391E+00
 -0.7141780E+01  0.7141780E+01 -0.1027320E+00  0.3639361E+00 -0.1576058E+01  0.1914824E-02  0.3639311E+00
 -0.7807410E+01  0.6407370E+01 -0.1027320E+00  0.3173353E+00 -0.1596079E+01  0.8022143E-02  0.3172339E+00
 -0.8397840E+01  0.5611260E+01 -0.1027320E+00  0.2689467E+00 -0.1637479E+01  0.1792082E-01  0.2683490E+00
 -0.8907410E+01  0.4761110E+01 -0.1027320E+00  0.2209831E+00 -0.1713876E+01  0.3151038E-01  0.2187250E+00
 -0.9331180E+01  0.3865100E+01 -0.1027320E+00  0.1766595E+00 -0.1851756E+01  0.4898385E-01  0.1697326E+00
 -0.9665100E+01  0.2931880E+01 -0.1027320E+00  0.1400130E+00 -0.2093621E+01  0.6991267E-01  0.1213090E+00
 -0.9905930E+01  0.1970410E+01 -0.1027320E+00  0.1197606E+00 -0.2479686E+01  0.9446974E-01  0.7360750E-01
 -0.1005140E+02  0.9899730E+00 -0.1027320E+00  0.1247644E+00 -0.2917174E+01  0.1216357E+00  0.2776505E-01
 -0.1010000E+02 -0.8829700E-06 -0.1027320E+00  0.1513254E+00  0.3043493E+01  0.1505978E+00 -0.1482119E-01
 -0.1005140E+02 -0.9899740E+00 -0.1027320E+00  0.1890051E+00  0.2847924E+01  0.1809135E+00 -0.5471053E-01
 -0.9905930E+01 -0.1970410E+01 -0.1027320E+00  0.2311994E+00  0.2734675E+01  0.2123208E+00 -0.9150416E-01
 -0.9665100E+01 -0.2931880E+01 -0.1027320E+00  0.2736312E+00  0.2667691E+01  0.2434755E+00 -0.1248746E+00
 -0.9331180E+01 -0.3865100E+01 -0.1027320E+00  0.3133238E+00  0.2628493E+01  0.2729762E+00 -0.1538043E+00
 -0.8907400E+01 -0.4761110E+01 -0.1027320E+00  0.3500730E+00  0.2604105E+01  0.3007120E+00 -0.1792301E+00
 -0.8397840E+01 -0.5611260E+01 -0.1027320E+00  0.3828869E+00  0.2589982E+01  0.3260977E+00 -0.2006554E+00
 -0.7807400E+01 -0.6407370E+01 -0.1027320E+00  0.4110656E+00  0.2581410E+01  0.3482376E+00 -0.2184159E+00
 -0.7141780E+01 -0.7141780E+01 -0.1027320E+00  0.4331633E+00  0.2576745E+01  0.3658802E+00 -0.2318667E+00
 -0.6407370E+01 -0.7807410E+01 -0.1027320E+00  0.4499354E+00  0.2573809E+01  0.3793382E+00 -0.2419595E+00
 -0.5611260E+01 -0.8397850E+01 -0.1027320E+00  0.4604723E+00  0.2572669E+01  0.3879392E+00 -0.2480684E+00
 -0.4761110E+01 -0.8907410E+01 -0.1027320E+00  0.4650873E+00  0.2572134E+01  0.3916932E+00 -0.2507641E+00
 -0.3865100E+01 -0.9331190E+01 -0.1027320E+00  0.4629899E+00  0.2572559E+01  0.3900328E+00 -0.2494676E+00
 -0.2931870E+01 -0.9665100E+01 -0.1027320E+00  0.4551099E+00  0.2573279E+01  0.3835711E+00 -0.2449454E+00
 -0.1970410E+01 -0.9905930E+01 -0.1027320E+00  0.4405456E+00  0.2575346E+01  0.3717856E+00 -0.2363387E+00
 -0.9899710E+00 -0.1005140E+02 -0.1027320E+00  0.4203666E+00  0.2578957E+01  0.3555680E+00 -0.2242310E+00
  0.1204410E-06 -0.1010000E+02 -0.1027320E+00  0.3946233E+00  0.2586128E+01  0.3352938E+00 -0.2081000E+00
  0.9899760E+00 -0.1005140E+02 -0.1027320E+00  0.3642018E+00  0.2597589E+01  0.3116269E+00 -0.1884984E+00
  0.1970410E+01 -0.9905930E+01 -0.1027320E+00  0.3285418E+00  0.2617357E+01  0.2844207E+00 -0.1644522E+00
  0.2931880E+01 -0.9665100E+01 -0.1027320E+00  0.2893900E+00  0.2649574E+01  0.2550628E+00 -0.1367096E+00
  0.3865100E+01 -0.9331180E+01 -0.1027320E+00  0.2481035E+00  0.2703889E+01  0.2247142E+00 -0.1051613E+00
  0.4761110E+01 -0.8907410E+01 -0.1027320E+00  0.2061975E+00  0.2793838E+01  0.1938545E+00 -0.7026966E-01
  0.5611260E+01 -0.8397840E+01 -0.1027320E+00  0.1657210E+00  0.2952149E+01  0.1627561E+00 -0.3120732E-01
  0.6407370E+01 -0.7807410E+01 -0.1027320E+00  0.1331121E+00 -0.3060202E+01  0.1326714E+00  0.1082206E-01
  0.7141780E+01 -0.7141780E+01 -0.1027320E+00  0.1185264E+00 -0.2657495E+01  0.1049072E+00  0.5516341E-01
  0.7807410E+01 -0.6407370E+01 -0.1027320E+00  0.1289460E+00 -0.2235670E+01  0.7955442E-01  0.1014798E+00
  0.8397840E+01 -0.5611260E+01 -0.1027320E+00  0.1606162E+00 -0.1934233E+01  0.5709717E-01  0.1501249E+00
  0.8907410E+01 -0.4761110E+01 -0.1027320E+00  0.2032247E+00 -0.1758691E+01  0.3796062E-01  0.1996479E+00
  0.9331180E+01 -0.3865100E+01 -0.1027320E+00  0.2497442E+00 -0.1662356E+01  0.2283446E-01  0.2486981E+00
  0.9665100E+01 -0.2931870E+01 -0.1027320E+00  0.2975082E+00 -0.1609136E+01  0.1140341E-01  0.2972896E+00
  0.9905930E+01 -0.1970410E+01 -0.1027320E+00  0.3453342E+00 -0.1582372E+01  0.3997533E-02  0.3453110E+00
  0.1005140E+02 -0.9899690E+00 -0.1027320E+00  0.3915953E+00 -0.1570927E+01  0.5102822E-04  0.3915953E+00
  0.1010000E+02  0.0000000E+00 -0.2310450E+00  0.4314121E+00 -0.1569060E+01 -0.7488782E-03  0.4314114E+00
  0.1005140E+02  0.9899730E+00 -0.2310450E+00  0.4715207E+00 -0.1573488E+01  0.1269193E-02  0.4715190E+00
  0.9905930E+01  0.1970410E+01 -0.2310450E+00  0.5087730E+00 -0.1582462E+01  0.5935029E-02  0.5087384E+00
  0.9665100E+01  0.2931880E+01 -0.2310450E+00  0.5426777E+00 -0.1593421E+01  0.1227688E-01  0.5425388E+00
  0.9331180E+01  0.3865100E+01 -0.2310450E+00  0.5724694E+00 -0.1604725E+01  0.1941921E-01  0.5721399E+00
  0.8907400E+01  0.4761110E+01 -0.2310450E+00  0.5985225E+00 -0.1616109E+01  0.2711125E-01  0.5979082E+00
  0.8397840E+01  0.5611260E+01 -0.2310450E+00  0.6208478E+00 -0.1627312E+01  0.3506901E-01  0.6198566E+00
  0.7807410E+01  0.6407370E+01 -0.2310450E+00  0.6394351E+00 -0.1637301E+01  0.4249392E-01  0.6380215E+00
  0.7141780E+01  0.7141780E+01 -0.2310450E+00  0.6538522E+00 -0.1645221E+01  0.4861759E-01  0.6520422E+00
  0.6407370E+01  0.7807410E+01 -0.2310450E+00  0.6643819E+00 -0.1651247E+01  0.5339245E-01  0.6622331E+00
  0.5611260E+01  0.8397840E+01 -0.2310450E+00  0.6709601E+00 -0.1655228E+01  0.5658322E-01  0.6685700E+00
  0.4761110E+01  0.8907410E+01 -0.2310450E+00  0.6738080E+00 -0.1656993E+01  0.5800810E-01  0.6713064E+00
  0.3865100E+01  0.9331180E+01 -0.2310450E+00  0.6726321E+00 -0.1656290E+01  0.5743549E-01  0.6701754E+00
  0.2931870E+01  0.9665100E+01 -0.2310450E+00  0.6675792E+00 -0.1653303E+01  0.5501700E-01  0.6653083E+00
  0.1970410E+01  0.9905930E+01 -0.2310450E+00  0.6584400E+00 -0.1647830E+01  0.5067184E-01  0.6564873E+00
  0.9899730E+00  0.1005140E+02 -0.2310450E+00  0.6455609E+00 -0.1640378E+01  0.4488266E-01  0.6439987E+00
 -0.4414850E-06  0.1010000E+02 -0.2310450E+00  0.6287887E+00 -0.1631435E+01  0.3810560E-01  0.6276330E+00
 -0.9899740E+00  0.1005140E+02 -0.2310450E+00  0.6081417E+00 -0.1621148E+01  0.3060812E-01  0.6073709E+00
 -0.1970410E+01  0.9905930E+01 -0.2310450E+00  0.5832952E+00 -0.1609429E+01  0.2252845E-01  0.5828599E+00
 -0.2931880E+01  0.9665100E+01 -0.2310450E+00  0.5547762E+00 -0.1597373E+01  0.1474229E-01  0.5545803E+00
 -0.3865100E+01  0.9331180E+01 -0.2310450E+00  0.5227576E+00 -0.1586473E+01  0.8194740E-02  0.5226934E+00
 -0.4761110E+01  0.8907400E+01 -0.2310450E+00  0.4872238E+00 -0.1577245E+01  0.3141833E-02  0.4872137E+00
 -0.5611260E+01  0.8397840E+01 -0.2310450E+00  0.4478291E+00 -0.1570544E+01 -0.1131274E-03  0.4478291E+00
 -0.6407370E+01  0.7807410E+01 -0.2310450E+00  0.4055286E+00 -0.1568751E+01 -0.8293312E-03  0.4055278E+00
 -0.7141780E+01  0.7141780E+01 -0.2310450E+00  0.3611169E+00 -0.1575887E+01  0.1838445E-02  0.3611122E+00
 -0.7807410E+01  0.6407370E+01 -0.2310450E+00  0.3147900E+00 -0.1596024E+01  0.7940685E-02  0.3146898E+00
 -0.8397840E+01  0.5611260E+01 -0.2310450E+00  0.2667879E+00 -0.1637353E+01  0.1774338E-01  0.2661972E+00
 -0.8907410E+01  0.4761110E+01 -0.2310450E+00  0.2191986E+00 -0.1713814E+01  0.3124246E-01  0.2169607E+00
 -0.9331180E+01  0.3865100E+01 -0.2310450E+00  0.1751589E+00 -0.1851541E+01  0.4853153E-01  0.1683013E+00
 -0.9665100E+01  0.2931880E+01 -0.2310450E+00  0.1388194E+00 -0.2093919E+01  0.6935240E-01  0.1202542E+00
 -0.9905930E+01  0.1970410E+01 -0.2310450E+00  0.1187275E+00 -0.2480307E+01  0.9370010E-01  0.7291434E-01
 -0.1005140E+02  0.9899730E+00 -0.2310450E+00  0.1237437E+00 -0.2917907E+01  0.1206608E+00  0.2744949E-01
 -0.1010000E+02 -0.8829700E-06 -0.2310450E+00  0.1501444E+00  0.3041968E+01  0.1494000E+00 -0.1493334E-01
 -0.1005140E+02 -0.9899740E+00 -0.2310450E+00  0.1875710E+00  0.2847208E+01  0.1795019E+00 -0.5442401E-01
 -0.9905930E+01 -0.1970410E+01 -0.2310450E+00  0.2294583E+00  0.2733994E+01  0.2106600E+00 -0.9095868E-01
 -0.9665100E+01 -0.2931880E+01 -0.2310450E+00  0.2715457E+00  0.2667220E+01  0.2415615E+00 -0.1240368E+00
 -0.9331180E+01 -0.3865100E+01 -0.2310450E+00  0.3110807E+00  0.2627702E+01  0.2709010E+00 -0.1529177E+00
 -0.8907400E+01 -0.4761110E+01 -0.2310450E+00  0.3474380E+00  0.2603730E+01  0.2983817E+00 -0.1779931E+00
 -0.8397840E+01 -0.5611260E+01 -0.2310450E+00  0.3800289E+00  0.2589578E+01  0.3235831E+00 -0.1992885E+00
 -0.7807400E+01 -0.6407370E+01 -0.2310450E+00  0.4079491E+00  0.2581081E+01  0.3455261E+00 -0.2168737E+00
 -0.7141780E+01 -0.7141780E+01 -0.2310450E+00  0.4300751E+00  0.2576190E+01  0.3631439E+00 -0.2304151E+00
 -0.6407370E+01 -0.7807410E+01 -0.2310450E+00  0.4465356E+00  0.2573509E+01  0.3763999E+00 -0.2402439E+00
 -0.5611260E+01 -0.8397850E+01 -0.2310450E+00  0.4570349E+00  0.2572337E+01  0.3849616E+00 -0.2463441E+00
 -0.4761110E+01 -0.8907410E+01 -0.2310450E+00  0.4615678E+00  0.2571841E+01  0.3886563E+00 -0.2489803E+00
 -0.3865100E+01 -0.9331190E+01 -0.2310450E+00  0.4596892E+00  0.2572046E+01  0.3871251E+00 -0.2478878E+00
 -0.2931870E+01 -0.9665100E+01 -0.2310450E+00  0.4516630E+00  0.2572979E+01  0.3805931E+00 -0.2432044E+00
 -0.1970410E+01 -0.9905930E+01 -0.2310450E+00  0.4372576E+00  0.2574999E+01  0.3689291E+00 -0.2347029E+00
 -0.9899710E+00 -0.1005140E+02 -0.2310450E+00  0.4171948E+00  0.2578640E+01  0.3528145E+00 -0.2226509E+00
  0.1204410E-06 -0.1010000E+02 -0.2310450E+00  0.3918088E+00  0.2585512E+01  0.3327753E+00 -0.2068207E+00
  0.9899760E+00 -0.1005140E+02 -0.2310450E+00  0.3614371E+00  0.2597221E+01  0.3091925E+00 -0.1871812E+00
  0.1970410E+01 -0.9905930E+01 -0.2310450E+00  0.3260881E+00  0.2616881E+01  0.2822190E+00 -0.1633582E+00
  0.2931880E+01 -0.9665100E+01 -0.2310450E+00  0.2872138E+00  0.2649116E+01  0.2530827E+00 -0.1357974E+00
  0.3865100E+01 -0.9331180E+01 -0.2310450E+00  0.2463089E+00  0.2702883E+01  0.2229836E+00 -0.1046250E+00
  0.4761110E+01 -0.8907410E+01 -0.2310450E+00  0.2046111E+00  0.2793240E+01  0.1923214E+00 -0.6984396E-01
  0.5611260E+01 -0.8397840E+01 -0.2310450E+00  0.1644395E+00  0.2951230E+01  0.1614690E+00 -0.3111446E-01
  0.6407370E+01 -0.7807410E+01 -0.2310450E+00  0.1320567E+00 -0.3061170E+01  0.1316299E+00  0.1060888E-01
  0.7141780E+01 -0.7141780E+01 -0.2310450E+00  0.1174745E+00 -0.2658680E+01  0.1040408E+00  0.5455059E-01
  0.7807410E+01 -0.6407370E+01 -0.2310450E+00  0.1278587E+00 -0.2235905E+01  0.7890733E-01  0.1006056E+00
  0.8397840E+01 -0.5611260E+01 -0.2310450E+00  0.1592606E+00 -0.1934223E+01  0.5661378E-01  0.1488584E+00
  0.8907410E+01 -0.4761110E+01 -0.2310450E+00  0.2015442E+00 -0.1758689E+01  0.3764628E-01  0.1979970E+00
  0.9331180E+01 -0.3865100E+01 -0.2310450E+00  0.2477343E+00 -0.1662078E+01  0.2258210E-01  0.2467029E+00
  0.9665100E+01 -0.2931870E+01 -0.2310450E+00  0.2951443E+00 -0.1609087E+01  0.1129841E-01  0.2949280E+00
  0.9905930E+01 -0.1970410E+01 -0.2310450E+00  0.3426054E+00 -0.1582282E+01  0.3934928E-02  0.3425828E+00
  0.1005140E+02 -0.9899690E+00 -0.2310450E+00  0.3884878E+00 -0.1570887E+01  0.3509490E-04  0.3884878E+00
  0.1010000E+02  0.0000000E+00 -0.4105000E+00  0.4266853E+00 -0.1569071E+01 -0.7363199E-03  0.4266847E+00
  0.1005140E+02  0.9899730E+00 -0.4105000E+00  0.4662600E+00 -0.1573600E+01  0.1307102E-02  0.4662582E+00
  0.9905930E+01  0.1970410E+01 -0.4105000E+00  0.5031536E+00 -0.1582505E+01  0.5891211E-02  0.5031191E+00
  0.9665100E+01  0.2931880E+01 -0.4105000E+00  0.5366049E+00 -0.1593447E+01  0.1215350E-01  0.5364673E+00
  0.9331180E+01  0.3865100E+01 -0.4105000E+00  0.5662598E+00 -0.1604762E+01  0.1922962E-01  0.5659332E+00
  0.8907400E+01  0.4761110E+01 -0.4105000E+00  0.5918636E+00 -0.1616154E+01  0.2683623E-01  0.5912549E+00
  0.8397840E+01  0.5611260E+01 -0.4105000E+00  0.6140218E+00 -0.1627349E+01  0.3470607E-01  0.6130401E+00
  0.7807410E+01  0.6407370E+01 -0.4105000E+00  0.6323150E+00 -0.1637292E+01  0.4201520E-01  0.6309176E+00
  0.7141780E+01  0.7141780E+01 -0.4105000E+00  0.6467929E+00 -0.1645271E+01  0.4812541E-01  0.6450000E+00
  0.6407370E+01  0.7807410E+01 -0.4105000E+00  0.6569998E+00 -0.1651249E+01  0.5280052E-01  0.6548747E+00
  0.5611260E+01  0.8397840E+01 -0.4105000E+00  0.6635981E+00 -0.1655261E+01  0.5598409E-01  0.6612324E+00
  0.4761110E+01  0.8907410E+01 -0.4105000E+00  0.6663215E+00 -0.1656982E+01  0.5735610E-01  0.6638483E+00
  0.3865100E+01  0.9331180E+01 -0.4105000E+00  0.6653751E+00 -0.1656343E+01  0.5685141E-01  0.6629418E+00
  0.2931870E+01  0.9665100E+01 -0.4105000E+00  0.6601571E+00 -0.1653289E+01  0.5439612E-01  0.6579123E+00
  0.1970410E+01  0.9905930E+01 -0.4105000E+00  0.6512117E+00 -0.1647864E+01  0.5013754E-01  0.6492788E+00
  0.9899730E+00  0.1005140E+02 -0.4105000E+00  0.6383848E+00 -0.1640394E+01  0.4439428E-01  0.6368393E+00
 -0.4414850E-06  0.1010000E+02 -0.4105000E+00  0.6219895E+00 -0.1631482E+01  0.3772271E-01  0.6208446E+00
 -0.9899740E+00  0.1005140E+02 -0.4105000E+00  0.6013585E+00 -0.1621149E+01  0.3026732E-01  0.6005964E+00
 -0.1970410E+01  0.9905930E+01 -0.4105000E+00  0.5768730E+00 -0.1609468E+01  0.2230304E-01  0.5764417E+00
 -0.2931880E+01  0.9665100E+01 -0.4105000E+00  0.5485975E+00 -0.1597442E+01  0.1461584E-01  0.5484028E+00
 -0.3865100E+01  0.9331180E+01 -0.4105000E+00  0.5170698E+00 -0.1586501E+01  0.8120228E-02  0.5170060E+00
 -0.4761110E+01  0.8907400E+01 -0.4105000E+00  0.4817562E+00 -0.1577297E+01  0.3131598E-02  0.4817460E+00
 -0.5611260E+01  0.8397840E+01 -0.4105000E+00  0.4428674E+00 -0.1570592E+01 -0.9067004E-04  0.4428674E+00
 -0.6407370E+01  0.7807410E+01 -0.4105000E+00  0.4009984E+00 -0.1568895E+01 -0.7624526E-03  0.4009977E+00
 -0.7141780E+01  0.7141780E+01 -0.4105000E+00  0.3571307E+00 -0.1575884E+01  0.1816894E-02  0.3571261E+00