 VARIABLES="X" "Y" "Z" "abs(eta) (m)" "angle(phi) (rad)" "PRE1" "PRE2"
ZONE N=   3200 ,E =    3136 ,F=FEPOINT,ET=QUADRILATERAL
  0.1010000E+02  0.0000000E+00  0.0000000E+00  0.2017718E-05  0.4078775E-01 -0.2016040E-05 -0.8227535E-07
  0.1005140E+02  0.9899730E+00  0.0000000E+00  0.3358604E-01 -0.1078885E+01 -0.1586308E-01  0.2960380E-01
  0.9905930E+01  0.1970410E+01  0.0000000E+00  0.6612431E-01 -0.1072170E+01 -0.3162191E-01  0.5807305E-01
  0.9665100E+01  0.2931880E+01  0.0000000E+00  0.9782530E-01 -0.1068594E+01 -0.4708888E-01  0.8574630E-01
  0.9331180E+01  0.3865100E+01  0.0000000E+00  0.1288639E+00 -0.1068144E+01 -0.6208041E-01  0.1129245E+00
  0.8907400E+01  0.4761110E+01  0.0000000E+00  0.1598817E+00 -0.1072612E+01 -0.7639652E-01  0.1404483E+00
  0.8397840E+01  0.5611260E+01  0.0000000E+00  0.1882939E+00 -0.1072145E+01 -0.9005005E-01  0.1653650E+00
  0.7807410E+01  0.6407370E+01  0.0000000E+00  0.2143461E+00 -0.1070239E+01 -0.1028678E+00  0.1880491E+00
  0.7141780E+01  0.7141780E+01  0.0000000E+00  0.2381079E+00 -0.1068147E+01 -0.1147082E+00  0.2086562E+00
  0.6407370E+01  0.7807410E+01  0.0000000E+00  0.2618395E+00 -0.1071810E+01 -0.1252995E+00  0.2299129E+00
  0.5611260E+01  0.8397840E+01  0.0000000E+00  0.2818069E+00 -0.1072161E+01 -0.1347679E+00  0.2474929E+00
  0.4761110E+01  0.8907410E+01  0.0000000E+00  0.2982279E+00 -0.1070760E+01 -0.1429876E+00  0.2617144E+00
  0.3865100E+01  0.9331180E+01  0.0000000E+00  0.3111071E+00 -0.1068156E+01 -0.1498729E+00  0.2726274E+00
  0.2931870E+01  0.9665100E+01  0.0000000E+00  0.3239328E+00 -0.1071410E+01 -0.1551273E+00  0.2843730E+00
  0.1970410E+01  0.9905930E+01  0.0000000E+00  0.3324132E+00 -0.1072158E+01 -0.1589699E+00  0.2919368E+00
  0.9899730E+00  0.1005140E+02  0.0000000E+00  0.3367223E+00 -0.1071118E+01 -0.1613382E+00  0.2955536E+00
 -0.4414850E-06  0.1010000E+02  0.0000000E+00  0.3367419E+00 -0.1068160E+01 -0.1622213E+00  0.2950921E+00
 -0.9899740E+00  0.1005140E+02  0.0000000E+00  0.3367229E+00 -0.1071119E+01 -0.1613382E+00  0.2955543E+00
 -0.1970410E+01  0.9905930E+01  0.0000000E+00  0.3324142E+00 -0.1072160E+01 -0.1589698E+00  0.2919380E+00
 -0.2931880E+01  0.9665100E+01  0.0000000E+00  0.3239346E+00 -0.1071413E+01 -0.1551272E+00  0.2843750E+00
 -0.3865100E+01  0.9331180E+01  0.0000000E+00  0.3111084E+00 -0.1068158E+01 -0.1498730E+00  0.2726288E+00
 -0.4761110E+01  0.8907400E+01  0.0000000E+00  0.2982285E+00 -0.1070761E+01 -0.1429877E+00  0.2617151E+00
 -0.5611260E+01  0.8397840E+01  0.0000000E+00  0.2818087E+00 -0.1072163E+01 -0.1347682E+00  0.2474948E+00
 -0.6407370E+01  0.7807410E+01  0.0000000E+00  0.2618413E+00 -0.1071813E+01 -0.1252998E+00  0.2299148E+00
 -0.7141780E+01  0.7141780E+01  0.0000000E+00  0.2381100E+00 -0.1068150E+01 -0.1147085E+00  0.2086584E+00
 -0.7807410E+01  0.6407370E+01  0.0000000E+00  0.2143483E+00 -0.1070243E+01 -0.1028682E+00  0.1880514E+00
 -0.8397840E+01  0.5611260E+01  0.0000000E+00  0.1882961E+00 -0.1072149E+01 -0.9005041E-01  0.1653673E+00
 -0.8907410E+01  0.4761110E+01  0.0000000E+00  0.1598841E+00 -0.1072619E+01 -0.7639669E-01  0.1404510E+00
 -0.9331180E+01  0.3865100E+01  0.0000000E+00  0.1288658E+00 -0.1068149E+01 -0.6208069E-01  0.1129265E+00
 -0.9665100E+01  0.2931880E+01  0.0000000E+00  0.9782710E-01 -0.1068600E+01 -0.4708927E-01  0.8574813E-01
 -0.9905930E+01  0.1970410E+01  0.0000000E+00  0.6612597E-01 -0.1072178E+01 -0.3162228E-01  0.5807475E-01
 -0.1005140E+02  0.9899730E+00  0.0000000E+00  0.3358750E-01 -0.1078895E+01 -0.1586347E-01  0.2960525E-01
 -0.1010000E+02 -0.8829700E-06  0.0000000E+00  0.2396925E-05 -0.3568928E+00 -0.2245888E-05  0.8374005E-06
 -0.1005140E+02 -0.9899740E+00  0.0000000E+00  0.3358352E-01  0.2062602E+01  0.1585874E-01 -0.2960326E-01
 -0.9905930E+01 -0.1970410E+01  0.0000000E+00  0.6612197E-01  0.2069368E+01  0.3161766E-01 -0.5807270E-01
 -0.9665100E+01 -0.2931880E+01  0.0000000E+00  0.9782290E-01  0.2072961E+01  0.4708450E-01 -0.8574595E-01
 -0.9331180E+01 -0.3865100E+01  0.0000000E+00  0.1288618E+00  0.2073420E+01  0.6207608E-01 -0.1129244E+00
 -0.8907400E+01 -0.4761110E+01  0.0000000E+00  0.1598797E+00  0.2068957E+01  0.7639214E-01 -0.1404484E+00
 -0.8397840E+01 -0.5611260E+01  0.0000000E+00  0.1882917E+00  0.2069428E+01  0.9004571E-01 -0.1653649E+00
 -0.7807400E+01 -0.6407370E+01  0.0000000E+00  0.2143434E+00  0.2071337E+01  0.1028635E+00 -0.1880484E+00
 -0.7141780E+01 -0.7141780E+01  0.0000000E+00  0.2381054E+00  0.2073431E+01  0.1147039E+00 -0.2086557E+00
 -0.6407370E+01 -0.7807410E+01  0.0000000E+00  0.2618371E+00  0.2069769E+01  0.1252952E+00 -0.2299126E+00
 -0.5611260E+01 -0.8397850E+01  0.0000000E+00  0.2818052E+00  0.2069418E+01  0.1347635E+00 -0.2474933E+00
 -0.4761110E+01 -0.8907410E+01  0.0000000E+00  0.2982249E+00  0.2070821E+01  0.1429829E+00 -0.2617135E+00
 -0.3865100E+01 -0.9331190E+01  0.0000000E+00  0.3111045E+00  0.2073424E+01  0.1498682E+00 -0.2726271E+00
 -0.2931870E+01 -0.9665100E+01  0.0000000E+00  0.3239288E+00  0.2070173E+01  0.1551226E+00 -0.2843710E+00
 -0.1970410E+01 -0.9905930E+01  0.0000000E+00  0.3324090E+00  0.2069425E+01  0.1589651E+00 -0.2919346E+00
 -0.9899710E+00 -0.1005140E+02  0.0000000E+00  0.3367174E+00  0.2070466E+01  0.1613334E+00 -0.2955506E+00
  0.1204410E-06 -0.1010000E+02  0.0000000E+00  0.3367363E+00  0.2073426E+01  0.1622166E+00 -0.2950883E+00
  0.9899760E+00 -0.1005140E+02  0.0000000E+00  0.3367176E+00  0.2070467E+01  0.1613336E+00 -0.2955507E+00
  0.1970410E+01 -0.9905930E+01  0.0000000E+00  0.3324091E+00  0.2069424E+01  0.1589650E+00 -0.2919348E+00
  0.2931880E+01 -0.9665100E+01  0.0000000E+00  0.3239290E+00  0.2070173E+01  0.1551226E+00 -0.2843712E+00
  0.3865100E+01 -0.9331180E+01  0.0000000E+00  0.3111032E+00  0.2073426E+01  0.1498682E+00 -0.2726257E+00
  0.4761110E+01 -0.8907410E+01  0.0000000E+00  0.2982247E+00  0.2070821E+01  0.1429830E+00 -0.2617132E+00
  0.5611260E+01 -0.8397840E+01  0.0000000E+00  0.2818038E+00  0.2069421E+01  0.1347637E+00 -0.2474917E+00
  0.6407370E+01 -0.7807410E+01  0.0000000E+00  0.2618364E+00  0.2069771E+01  0.1252953E+00 -0.2299117E+00
  0.7141780E+01 -0.7141780E+01  0.0000000E+00  0.2381051E+00  0.2073432E+01  0.1147040E+00 -0.2086553E+00
  0.7807410E+01 -0.6407370E+01  0.0000000E+00  0.2143438E+00  0.2071337E+01  0.1028636E+00 -0.1880488E+00
  0.8397840E+01 -0.5611260E+01  0.0000000E+00  0.1882917E+00  0.2069430E+01  0.9004597E-01 -0.1653647E+00
  0.8907410E+01 -0.4761110E+01  0.0000000E+00  0.1598800E+00  0.2068956E+01  0.7639222E-01 -0.1404487E+00
  0.9331180E+01 -0.3865100E+01  0.0000000E+00  0.1288619E+00  0.2073420E+01  0.6207614E-01 -0.1129245E+00
  0.9665100E+01 -0.2931870E+01  0.0000000E+00  0.9782282E-01  0.2072962E+01  0.4708457E-01 -0.8574583E-01
  0.9905930E+01 -0.1970410E+01  0.0000000E+00  0.6612238E-01  0.2069368E+01  0.3161782E-01 -0.5807307E-01
  0.1005140E+02 -0.9899690E+00  0.0000000E+00  0.3358412E-01  0.2062600E+01  0.1585896E-01 -0.2960382E-01
  0.1010000E+02  0.0000000E+00 -0.2568960E-01  0.1973779E-05  0.2013248E-01 -0.1973379E-05 -0.3973438E-07
  0.1005140E+02  0.9899730E+00 -0.2568960E-01  0.3351178E-01 -0.1078391E+01 -0.1584260E-01  0.2953052E-01
  0.9905930E+01  0.1970410E+01 -0.2568960E-01  0.6603695E-01 -0.1072217E+01 -0.3157742E-01  0.5799780E-01
  0.9665100E+01  0.2931880E+01 -0.2568960E-01  0.9761950E-01 -0.1068149E+01 -0.4702789E-01  0.8554499E-01
  0.9331180E+01  0.3865100E+01 -0.2568960E-01  0.1285705E+00 -0.1067591E+01 -0.6200127E-01  0.1126331E+00
  0.8907400E+01  0.4761110E+01 -0.2568960E-01  0.1595386E+00 -0.1072148E+01 -0.7629760E-01  0.1401115E+00
  0.8397840E+01  0.5611260E+01 -0.2568960E-01  0.1880450E+00 -0.1072190E+01 -0.8992356E-01  0.1651504E+00
  0.7807410E+01  0.6407370E+01 -0.2568960E-01  0.2138914E+00 -0.1069786E+01 -0.1027346E+00  0.1876036E+00
  0.7141780E+01  0.7141780E+01 -0.2568960E-01  0.2375660E+00 -0.1067595E+01 -0.1145621E+00  0.2081180E+00
  0.6407370E+01  0.7807410E+01 -0.2568960E-01  0.2612796E+00 -0.1071349E+01 -0.1251374E+00  0.2293636E+00
  0.5611260E+01  0.8397840E+01 -0.2568960E-01  0.2814343E+00 -0.1072206E+01 -0.1345784E+00  0.2471718E+00
  0.4761110E+01  0.8907410E+01 -0.2568960E-01  0.2975936E+00 -0.1070304E+01 -0.1428026E+00  0.2610927E+00
  0.3865100E+01  0.9331180E+01 -0.2568960E-01  0.3103989E+00 -0.1067604E+01 -0.1496820E+00  0.2719242E+00
  0.2931870E+01  0.9665100E+01 -0.2568960E-01  0.3232418E+00 -0.1070952E+01 -0.1549263E+00  0.2836955E+00
  0.1970410E+01  0.9905930E+01 -0.2568960E-01  0.3319736E+00 -0.1072204E+01 -0.1587462E+00  0.2915581E+00
  0.9899730E+00  0.1005140E+02 -0.2568960E-01  0.3360050E+00 -0.1070661E+01 -0.1611294E+00  0.2948503E+00
 -0.4414850E-06  0.1010000E+02 -0.2568960E-01  0.3359754E+00 -0.1067607E+01 -0.1620146E+00  0.2943310E+00
 -0.9899740E+00  0.1005140E+02 -0.2568960E-01  0.3360053E+00 -0.1070661E+01 -0.1611294E+00  0.2948506E+00
 -0.1970410E+01  0.9905930E+01 -0.2568960E-01  0.3319746E+00 -0.1072206E+01 -0.1587463E+00  0.2915592E+00
 -0.2931880E+01  0.9665100E+01 -0.2568960E-01  0.3232431E+00 -0.1070953E+01 -0.1549265E+00  0.2836968E+00
 -0.3865100E+01  0.9331180E+01 -0.2568960E-01  0.3104003E+00 -0.1067606E+01 -0.1496821E+00  0.2719258E+00
 -0.4761110E+01  0.8907400E+01 -0.2568960E-01  0.2975944E+00 -0.1070305E+01 -0.1428027E+00  0.2610935E+00
 -0.5611260E+01  0.8397840E+01 -0.2568960E-01  0.2814359E+00 -0.1072209E+01 -0.1345786E+00  0.2471736E+00
 -0.6407370E+01  0.7807410E+01 -0.2568960E-01  0.2612816E+00 -0.1071352E+01 -0.1251377E+00  0.2293657E+00
 -0.7141780E+01  0.7141780E+01 -0.2568960E-01  0.2375678E+00 -0.1067598E+01 -0.1145624E+00  0.2081200E+00
 -0.7807410E+01  0.6407370E+01 -0.2568960E-01  0.2138938E+00 -0.1069790E+01 -0.1027350E+00  0.1876061E+00
 -0.8397840E+01  0.5611260E+01 -0.2568960E-01  0.1880470E+00 -0.1072194E+01 -0.8992381E-01  0.1651526E+00
 -0.8907410E+01  0.4761110E+01 -0.2568960E-01  0.1595409E+00 -0.1072154E+01 -0.7629784E-01  0.1401141E+00
 -0.9331180E+01  0.3865100E+01 -0.2568960E-01  0.1285724E+00 -0.1067597E+01 -0.6200152E-01  0.1126351E+00
 -0.9665100E+01  0.2931880E+01 -0.2568960E-01  0.9762125E-01 -0.1068154E+01 -0.4702829E-01  0.8554677E-01
 -0.9905930E+01  0.1970410E+01 -0.2568960E-01  0.6603856E-01 -0.1072224E+01 -0.3157778E-01  0.5799944E-01
 -0.1005140E+02  0.9899730E+00 -0.2568960E-01  0.3351320E-01 -0.1078401E+01 -0.1584296E-01  0.2953193E-01
 -0.1010000E+02 -0.8829700E-06 -0.2568960E-01  0.2553220E-05 -0.3864715E+00 -0.2364907E-05  0.9623664E-06
 -0.1005140E+02 -0.9899740E+00 -0.2568960E-01  0.3350909E-01  0.2063097E+01  0.1583824E-01 -0.2952980E-01
 -0.9905930E+01 -0.1970410E+01 -0.2568960E-01  0.6603438E-01  0.2069320E+01  0.3157299E-01 -0.5799729E-01
 -0.9665100E+01 -0.2931880E+01 -0.2568960E-01  0.9761709E-01  0.2073407E+01  0.4702359E-01 -0.8554460E-01
 -0.9331180E+01 -0.3865100E+01 -0.2568960E-01  0.1285685E+00  0.2073971E+01  0.6199691E-01 -0.1126332E+00
 -0.8907400E+01 -0.4761110E+01 -0.2568960E-01  0.1595366E+00  0.2069422E+01  0.7629345E-01 -0.1401115E+00
 -0.8397840E+01 -0.5611260E+01 -0.2568960E-01  0.1880430E+00  0.2069382E+01  0.8991913E-01 -0.1651506E+00
 -0.7807400E+01 -0.6407370E+01 -0.2568960E-01  0.2138887E+00  0.2071791E+01  0.1027305E+00 -0.1876029E+00
 -0.7141780E+01 -0.7141780E+01 -0.2568960E-01  0.2375636E+00  0.2073983E+01  0.1145579E+00 -0.2081176E+00
 -0.6407370E+01 -0.7807410E+01 -0.2568960E-01  0.2612771E+00  0.2070231E+01  0.1251333E+00 -0.2293630E+00
 -0.5611260E+01 -0.8397850E+01 -0.2568960E-01  0.2814322E+00  0.2069373E+01  0.1345742E+00 -0.2471718E+00
 -0.4761110E+01 -0.8907410E+01 -0.2568960E-01  0.2975907E+00  0.2071277E+01  0.1427980E+00 -0.2610918E+00
 -0.3865100E+01 -0.9331190E+01 -0.2568960E-01  0.3103964E+00  0.2073976E+01  0.1496772E+00 -0.2719240E+00
 -0.2931870E+01 -0.9665100E+01 -0.2568960E-01  0.3232380E+00  0.2070631E+01  0.1549217E+00 -0.2836936E+00
 -0.1970410E+01 -0.9905930E+01 -0.2568960E-01  0.3319692E+00  0.2069380E+01  0.1587416E+00 -0.2915556E+00
 -0.9899710E+00 -0.1005140E+02 -0.2568960E-01  0.3360006E+00  0.2070924E+01  0.1611249E+00 -0.2948477E+00
  0.1204410E-06 -0.1010000E+02 -0.2568960E-01  0.3359707E+00  0.2073977E+01  0.1620100E+00 -0.2943282E+00
  0.9899760E+00 -0.1005140E+02 -0.2568960E-01  0.3360007E+00  0.2070924E+01  0.1611249E+00 -0.2948477E+00
  0.1970410E+01 -0.9905930E+01 -0.2568960E-01  0.3319694E+00  0.2069380E+01  0.1587418E+00 -0.2915556E+00
  0.2931880E+01 -0.9665100E+01 -0.2568960E-01  0.3232379E+00  0.2070632E+01  0.1549218E+00 -0.2836934E+00
  0.3865100E+01 -0.9331180E+01 -0.2568960E-01  0.3103951E+00  0.2073978E+01  0.1496773E+00 -0.2719224E+00
  0.4761110E+01 -0.8907410E+01 -0.2568960E-01  0.2975903E+00  0.2071278E+01  0.1427981E+00 -0.2610913E+00
  0.5611260E+01 -0.8397840E+01 -0.2568960E-01  0.2814312E+00  0.2069375E+01  0.1345742E+00 -0.2471706E+00
  0.6407370E+01 -0.7807410E+01 -0.2568960E-01  0.2612769E+00  0.2070231E+01  0.1251331E+00 -0.2293629E+00
  0.7141780E+01 -0.7141780E+01 -0.2568960E-01  0.2375635E+00  0.2073983E+01  0.1145579E+00 -0.2081176E+00
  0.7807410E+01 -0.6407370E+01 -0.2568960E-01  0.2138892E+00  0.2071791E+01  0.1027306E+00 -0.1876034E+00
  0.8397840E+01 -0.5611260E+01 -0.2568960E-01  0.1880427E+00  0.2069384E+01  0.8991933E-01 -0.1651501E+00
  0.8907410E+01 -0.4761110E+01 -0.2568960E-01  0.1595369E+00  0.2069421E+01  0.7629341E-01 -0.1401119E+00
  0.9331180E+01 -0.3865100E+01 -0.2568960E-01  0.1285685E+00  0.2073973E+01  0.6199712E-01 -0.1126331E+00
  0.9665100E+01 -0.2931870E+01 -0.2568960E-01  0.9761693E-01  0.2073409E+01  0.4702367E-01 -0.8554436E-01
  0.9905930E+01 -0.1970410E+01 -0.2568960E-01  0.6603505E-01  0.2069322E+01  0.3157344E-01 -0.5799782E-01
  0.1005140E+02 -0.9899690E+00 -0.2568960E-01  0.3350979E-01  0.2063089E+01  0.1583831E-01 -0.2953056E-01
  0.1010000E+02  0.0000000E+00 -0.1027320E+00  0.1989535E-05  0.1663391E-01 -0.1989260E-05 -0.3309223E-07
  0.1005140E+02  0.9899730E+00 -0.1027320E+00  0.3333081E-01 -0.1077603E+01 -0.1578016E-01  0.2935864E-01
  0.9905930E+01  0.1970410E+01 -0.1027320E+00  0.6581822E-01 -0.1072690E+01 -0.3144552E-01  0.5782056E-01
  0.9665100E+01  0.2931880E+01 -0.1027320E+00  0.9715321E-01 -0.1067691E+01 -0.4684225E-01  0.8511492E-01
  0.9331180E+01  0.3865100E+01 -0.1027320E+00  0.1278810E+00 -0.1066780E+01 -0.6175959E-01  0.1119790E+00
  0.8907400E+01  0.4761110E+01 -0.1027320E+00  0.1587379E+00 -0.1071560E+01 -0.7599656E-01  0.1393637E+00
  0.8397840E+01  0.5611260E+01 -0.1027320E+00  0.1874222E+00 -0.1072662E+01 -0.8954788E-01  0.1646458E+00
  0.7807410E+01  0.6407370E+01 -0.1027320E+00  0.2128491E+00 -0.1069276E+01 -0.1023292E+00  0.1866373E+00
  0.7141780E+01  0.7141780E+01 -0.1027320E+00  0.2362914E+00 -0.1066782E+01 -0.1141156E+00  0.2069088E+00
  0.6407370E+01  0.7807410E+01 -0.1027320E+00  0.2599815E+00 -0.1070787E+01 -0.1246438E+00  0.2281541E+00
  0.5611260E+01  0.8397840E+01 -0.1027320E+00  0.2805022E+00 -0.1072679E+01 -0.1340162E+00  0.2464166E+00
  0.4761110E+01  0.8907410E+01 -0.1027320E+00  0.2961338E+00 -0.1069777E+01 -0.1422389E+00  0.2597371E+00
  0.3865100E+01  0.9331180E+01 -0.1027320E+00  0.3087339E+00 -0.1066792E+01 -0.1490986E+00  0.2703446E+00
  0.2931870E+01  0.9665100E+01 -0.1027320E+00  0.3216433E+00 -0.1070403E+01 -0.1543151E+00  0.2822078E+00
  0.1970410E+01  0.9905930E+01 -0.1027320E+00  0.3308742E+00 -0.1072677E+01 -0.1580830E+00  0.2906674E+00
  0.9899730E+00  0.1005140E+02 -0.1027320E+00  0.3343498E+00 -0.1070122E+01 -0.1604936E+00  0.2933114E+00
 -0.4414850E-06  0.1010000E+02 -0.1027320E+00  0.3341736E+00 -0.1066796E+01 -0.1613833E+00  0.2926217E+00
 -0.9899740E+00  0.1005140E+02 -0.1027320E+00  0.3343502E+00 -0.1070123E+01 -0.1604936E+00  0.2933119E+00
 -0.1970410E+01  0.9905930E+01 -0.1027320E+00  0.3308752E+00 -0.1072679E+01 -0.1580831E+00  0.2906685E+00
 -0.2931880E+01  0.9665100E+01 -0.1027320E+00  0.3216448E+00 -0.1070405E+01 -0.1543152E+00  0.2822094E+00
 -0.3865100E+01  0.9331180E+01 -0.1027320E+00  0.3087354E+00 -0.1066794E+01 -0.1490987E+00  0.2703463E+00
 -0.4761110E+01  0.8907400E+01 -0.1027320E+00  0.2961342E+00 -0.1069777E+01 -0.1422391E+00  0.2597374E+00
 -0.5611260E+01  0.8397840E+01 -0.1027320E+00  0.2805041E+00 -0.1072682E+01 -0.1340165E+00  0.2464187E+00
 -0.6407370E+01  0.7807410E+01 -0.1027320E+00  0.2599833E+00 -0.1070790E+01 -0.1246440E+00  0.2281561E+00
 -0.7141780E+01  0.7141780E+01 -0.1027320E+00  0.2362938E+00 -0.1066786E+01 -0.1141160E+00  0.2069113E+00
 -0.7807410E+01  0.6407370E+01 -0.1027320E+00  0.2128511E+00 -0.1069278E+01 -0.1023297E+00  0.1866393E+00
 -0.8397840E+01  0.5611260E+01 -0.1027320E+00  0.1874244E+00 -0.1072667E+01 -0.8954813E-01  0.1646482E+00
 -0.8907410E+01  0.4761110E+01 -0.1027320E+00  0.1587404E+00 -0.1071567E+01 -0.7599683E-01  0.1393664E+00
 -0.9331180E+01  0.3865100E+01 -0.1027320E+00  0.1278828E+00 -0.1066786E+01 -0.6175993E-01  0.1119810E+00
 -0.9665100E+01  0.2931880E+01 -0.1027320E+00  0.9715507E-01 -0.1067697E+01 -0.4684269E-01  0.8511680E-01
 -0.9905930E+01  0.1970410E+01 -0.1027320E+00  0.6581978E-01 -0.1072697E+01 -0.3144583E-01  0.5782217E-01
 -0.1005140E+02  0.9899730E+00 -0.1027320E+00  0.3333230E-01 -0.1077616E+01 -0.1578050E-01  0.2936014E-01
 -0.1010000E+02 -0.8829700E-06 -0.1027320E+00  0.2486937E-05 -0.4247736E+00 -0.2265928E-05  0.1024903E-05
 -0.1005140E+02 -0.9899740E+00 -0.1027320E+00  0.3332805E-01  0.2063888E+01  0.1577587E-01 -0.2935780E-01
 -0.9905930E+01 -0.1970410E+01 -0.1027320E+00  0.6581572E-01  0.2068850E+01  0.3144127E-01 -0.5782002E-01
 -0.9665100E+01 -0.2931880E+01 -0.1027320E+00  0.9715097E-01  0.2073866E+01  0.4683812E-01 -0.8511464E-01
 -0.9331180E+01 -0.3865100E+01 -0.1027320E+00  0.1278788E+00  0.2074784E+01  0.6175538E-01 -0.1119788E+00
 -0.8907400E+01 -0.4761110E+01 -0.1027320E+00  0.1587359E+00  0.2070009E+01  0.7599229E-01 -0.1393638E+00
 -0.8397840E+01 -0.5611260E+01 -0.1027320E+00  0.1874201E+00  0.2068909E+01  0.8954349E-01 -0.1646459E+00
 -0.7807400E+01 -0.6407370E+01 -0.1027320E+00  0.2128464E+00  0.2072301E+01  0.1023250E+00 -0.1866365E+00
 -0.7141780E+01 -0.7141780E+01 -0.1027320E+00  0.2362892E+00  0.2074795E+01  0.1141114E+00 -0.2069087E+00
 -0.6407370E+01 -0.7807410E+01 -0.1027320E+00  0.2599788E+00  0.2070791E+01  0.1246393E+00 -0.2281535E+00
 -0.5611260E+01 -0.8397850E+01 -0.1027320E+00  0.2805002E+00  0.2068900E+01  0.1340118E+00 -0.2464167E+00
 -0.4761110E+01 -0.8907410E+01 -0.1027320E+00  0.2961307E+00  0.2071805E+01  0.1422346E+00 -0.2597358E+00
 -0.3865100E+01 -0.9331190E+01 -0.1027320E+00  0.3087316E+00  0.2074788E+01  0.1490941E+00 -0.2703446E+00
 -0.2931870E+01 -0.9665100E+01 -0.1027320E+00  0.3216395E+00  0.2071181E+01  0.1543107E+00 -0.2822059E+00
 -0.1970410E+01 -0.9905930E+01 -0.1027320E+00  0.3308701E+00  0.2068906E+01  0.1580783E+00 -0.2906653E+00
 -0.9899710E+00 -0.1005140E+02 -0.1027320E+00  0.3343448E+00  0.2071463E+01  0.1604890E+00 -0.2933082E+00
  0.1204410E-06 -0.1010000E+02 -0.1027320E+00  0.3341685E+00  0.2074789E+01  0.1613785E+00 -0.2926185E+00
  0.9899760E+00 -0.1005140E+02 -0.1027320E+00  0.3343454E+00  0.2071462E+01  0.1604891E+00 -0.2933089E+00
  0.1970410E+01 -0.9905930E+01 -0.1027320E+00  0.3308699E+00  0.2068907E+01  0.1580786E+00 -0.2906649E+00
  0.2931880E+01 -0.9665100E+01 -0.1027320E+00  0.3216396E+00  0.2071180E+01  0.1543105E+00 -0.2822062E+00
  0.3865100E+01 -0.9331180E+01 -0.1027320E+00  0.3087305E+00  0.2074790E+01  0.1490941E+00 -0.2703432E+00
  0.4761110E+01 -0.8907410E+01 -0.1027320E+00  0.2961303E+00  0.2071805E+01  0.1422345E+00 -0.2597354E+00
  0.5611260E+01 -0.8397840E+01 -0.1027320E+00  0.2804993E+00  0.2068901E+01  0.1340118E+00 -0.2464157E+00
  0.6407370E+01 -0.7807410E+01 -0.1027320E+00  0.2599788E+00  0.2070791E+01  0.1246394E+00 -0.2281534E+00
  0.7141780E+01 -0.7141780E+01 -0.1027320E+00  0.2362893E+00  0.2074795E+01  0.1141114E+00 -0.2069087E+00
  0.7807410E+01 -0.6407370E+01 -0.1027320E+00  0.2128468E+00  0.2072300E+01  0.1023249E+00 -0.1866370E+00
  0.8397840E+01 -0.5611260E+01 -0.1027320E+00  0.1874200E+00  0.2068911E+01  0.8954364E-01 -0.1646456E+00
  0.8907410E+01 -0.4761110E+01 -0.1027320E+00  0.1587363E+00  0.2070007E+01  0.7599221E-01 -0.1393643E+00
  0.9331180E+01 -0.3865100E+01 -0.1027320E+00  0.1278789E+00  0.2074784E+01  0.6175547E-01 -0.1119790E+00
  0.9665100E+01 -0.2931870E+01 -0.1027320E+00  0.9715073E-01  0.2073866E+01  0.4683806E-01 -0.8511439E-01
  0.9905930E+01 -0.1970410E+01 -0.1027320E+00  0.6581624E-01  0.2068848E+01  0.3144142E-01 -0.5782054E-01
  0.1005140E+02 -0.9899690E+00 -0.1027320E+00  0.3332888E-01  0.2063877E+01  0.1577595E-01 -0.2935871E-01
  0.1010000E+02  0.0000000E+00 -0.2310450E+00  0.1979091E-05  0.4310251E-01 -0.1977253E-05 -0.8527738E-07
  0.1005140E+02  0.9899730E+00 -0.2310450E+00  0.3315803E-01 -0.1078344E+01 -0.1567672E-01  0.2921806E-01
  0.9905930E+01  0.1970410E+01 -0.2310450E+00  0.6551989E-01 -0.1073783E+01 -0.3124001E-01  0.5759269E-01
  0.9665100E+01  0.2931880E+01 -0.2310450E+00  0.9676521E-01 -0.1069120E+01 -0.4653399E-01  0.8484159E-01
  0.9331180E+01  0.3865100E+01 -0.2310450E+00  0.1273498E+00 -0.1068135E+01 -0.6135192E-01  0.1115971E+00
  0.8907400E+01  0.4761110E+01 -0.2310450E+00  0.1580305E+00 -0.1072718E+01 -0.7549725E-01  0.1388301E+00
  0.8397840E+01  0.5611260E+01 -0.2310450E+00  0.1865732E+00 -0.1073758E+01 -0.8896261E-01  0.1639976E+00
  0.7807410E+01  0.6407370E+01 -0.2310450E+00  0.2119589E+00 -0.1070594E+01 -0.1016562E+00  0.1859909E+00
  0.7141780E+01  0.7141780E+01 -0.2310450E+00  0.2353101E+00 -0.1068136E+01 -0.1133626E+00  0.2062032E+00
  0.6407370E+01  0.7807410E+01 -0.2310450E+00  0.2588472E+00 -0.1072000E+01 -0.1238244E+00  0.2273091E+00
  0.5611260E+01  0.8397840E+01 -0.2310450E+00  0.2792310E+00 -0.1073773E+01 -0.1331404E+00  0.2454457E+00
  0.4761110E+01  0.8907410E+01 -0.2310450E+00  0.2948775E+00 -0.1071060E+01 -0.1413035E+00  0.2588167E+00
  0.3865100E+01  0.9331180E+01 -0.2310450E+00  0.3074515E+00 -0.1068146E+01 -0.1481146E+00  0.2694225E+00
  0.2931870E+01  0.9665100E+01 -0.2310450E+00  0.3202551E+00 -0.1071643E+01 -0.1533005E+00  0.2811801E+00
  0.1970410E+01  0.9905930E+01 -0.2310450E+00  0.3293750E+00 -0.1073772E+01 -0.1570500E+00  0.2895223E+00
  0.9899730E+00  0.1005140E+02 -0.2310450E+00  0.3329187E+00 -0.1071383E+01 -0.1594385E+00  0.2922572E+00
 -0.4414850E-06  0.1010000E+02 -0.2310450E+00  0.3327857E+00 -0.1068151E+01 -0.1603180E+00  0.2916238E+00
 -0.9899740E+00  0.1005140E+02 -0.2310450E+00  0.3329191E+00 -0.1071384E+01 -0.1594383E+00  0.2922576E+00
 -0.1970410E+01  0.9905930E+01 -0.2310450E+00  0.3293760E+00 -0.1073773E+01 -0.1570502E+00  0.2895235E+00
 -0.2931880E+01  0.9665100E+01 -0.2310450E+00  0.3202564E+00 -0.1071644E+01 -0.1533007E+00  0.2811815E+00
 -0.3865100E+01  0.9331180E+01 -0.2310450E+00  0.3074530E+00 -0.1068148E+01 -0.1481148E+00  0.2694242E+00
 -0.4761110E+01  0.8907400E+01 -0.2310450E+00  0.2948782E+00 -0.1071060E+01 -0.1413038E+00  0.2588172E+00
 -0.5611260E+01  0.8397840E+01 -0.2310450E+00  0.2792329E+00 -0.1073776E+01 -0.1331405E+00  0.2454478E+00
 -0.6407370E+01  0.7807410E+01 -0.2310450E+00  0.2588491E+00 -0.1072003E+01 -0.1238246E+00  0.2273111E+00
 -0.7141780E+01  0.7141780E+01 -0.2310450E+00  0.2353122E+00 -0.1068140E+01 -0.1133628E+00  0.2062055E+00
 -0.7807410E+01  0.6407370E+01 -0.2310450E+00  0.2119611E+00 -0.1070598E+01 -0.1016565E+00  0.1859931E+00
 -0.8397840E+01  0.5611260E+01 -0.2310450E+00  0.1865751E+00 -0.1073762E+01 -0.8896292E-01  0.1639996E+00
 -0.8907410E+01  0.4761110E+01 -0.2310450E+00  0.1580330E+00 -0.1072725E+01 -0.7549746E-01  0.1388328E+00
 -0.9331180E+01  0.3865100E+01 -0.2310450E+00  0.1273517E+00 -0.1068140E+01 -0.6135236E-01  0.1115990E+00
 -0.9665100E+01  0.2931880E+01 -0.2310450E+00  0.9676697E-01 -0.1069125E+01 -0.4653440E-01  0.8484336E-01
 -0.9905930E+01  0.1970410E+01 -0.2310450E+00  0.6552146E-01 -0.1073789E+01 -0.3124041E-01  0.5759425E-01
 -0.1005140E+02  0.9899730E+00 -0.2310450E+00  0.3315933E-01 -0.1078354E+01 -0.1567704E-01  0.2921936E-01
 -0.1010000E+02 -0.8829700E-06 -0.2310450E+00  0.2455920E-05 -0.3723077E+00 -0.2287666E-05  0.8933801E-06
 -0.1005140E+02 -0.9899740E+00 -0.2310450E+00  0.3315547E-01  0.2063141E+01  0.1567238E-01 -0.2921749E-01
 -0.9905930E+01 -0.1970410E+01 -0.2310450E+00  0.6551732E-01  0.2067757E+01  0.3123578E-01 -0.5759206E-01
 -0.9665100E+01 -0.2931880E+01 -0.2310450E+00  0.9676267E-01  0.2072437E+01  0.4652973E-01 -0.8484102E-01
 -0.9331180E+01 -0.3865100E+01 -0.2310450E+00  0.1273477E+00  0.2073428E+01  0.6134764E-01 -0.1115971E+00
 -0.8907400E+01 -0.4761110E+01 -0.2310450E+00  0.1580284E+00  0.2068851E+01  0.7549295E-01 -0.1388301E+00
 -0.8397840E+01 -0.5611260E+01 -0.2310450E+00  0.1865709E+00  0.2067815E+01  0.8895837E-01 -0.1639972E+00
 -0.7807400E+01 -0.6407370E+01 -0.2310450E+00  0.2119564E+00  0.2070983E+01  0.1016521E+00 -0.1859902E+00
 -0.7141780E+01 -0.7141780E+01 -0.2310450E+00  0.2353077E+00  0.2073440E+01  0.1133581E+00 -0.2062029E+00
 -0.6407370E+01 -0.7807410E+01 -0.2310450E+00  0.2588447E+00  0.2069579E+01  0.1238200E+00 -0.2273085E+00
 -0.5611260E+01 -0.8397850E+01 -0.2310450E+00  0.2792295E+00  0.2067805E+01  0.1331360E+00 -0.2454463E+00
 -0.4761110E+01 -0.8907410E+01 -0.2310450E+00  0.2948748E+00  0.2070520E+01  0.1412991E+00 -0.2588160E+00
 -0.3865100E+01 -0.9331190E+01 -0.2310450E+00  0.3074490E+00  0.2073433E+01  0.1481098E+00 -0.2694223E+00
 -0.2931870E+01 -0.9665100E+01 -0.2310450E+00  0.3202513E+00  0.2069940E+01  0.1532959E+00 -0.2811784E+00
 -0.1970410E+01 -0.9905930E+01 -0.2310450E+00  0.3293713E+00  0.2067812E+01  0.1570456E+00 -0.2895205E+00
 -0.9899710E+00 -0.1005140E+02 -0.2310450E+00  0.3329145E+00  0.2070201E+01  0.1594338E+00 -0.2922549E+00
  0.1204410E-06 -0.1010000E+02 -0.2310450E+00  0.3327806E+00  0.2073435E+01  0.1603135E+00 -0.2916206E+00
  0.9899760E+00 -0.1005140E+02 -0.2310450E+00  0.3329141E+00  0.2070202E+01  0.1594338E+00 -0.2922545E+00
  0.1970410E+01 -0.9905930E+01 -0.2310450E+00  0.3293710E+00  0.2067812E+01  0.1570455E+00 -0.2895203E+00
  0.2931880E+01 -0.9665100E+01 -0.2310450E+00  0.3202514E+00  0.2069940E+01  0.1532961E+00 -0.2811784E+00
  0.3865100E+01 -0.9331180E+01 -0.2310450E+00  0.3074478E+00  0.2073437E+01  0.1481102E+00 -0.2694207E+00
  0.4761110E+01 -0.8907410E+01 -0.2310450E+00  0.2948744E+00  0.2070522E+01  0.1412992E+00 -0.2588155E+00
  0.5611260E+01 -0.8397840E+01 -0.2310450E+00  0.2792284E+00  0.2067808E+01  0.1331362E+00 -0.2454450E+00
  0.6407370E+01 -0.7807410E+01 -0.2310450E+00  0.2588446E+00  0.2069579E+01  0.1238202E+00 -0.2273084E+00
  0.7141780E+01 -0.7141780E+01 -0.2310450E+00  0.2353076E+00  0.2073441E+01  0.1133582E+00 -0.2062028E+00
  0.7807410E+01 -0.6407370E+01 -0.2310450E+00  0.2119567E+00  0.2070982E+01  0.1016520E+00 -0.1859906E+00
  0.8397840E+01 -0.5611260E+01 -0.2310450E+00  0.1865710E+00  0.2067816E+01  0.8895846E-01 -0.1639973E+00
  0.8907410E+01 -0.4761110E+01 -0.2310450E+00  0.1580289E+00  0.2068850E+01  0.7549298E-01 -0.1388306E+00
  0.9331180E+01 -0.3865100E+01 -0.2310450E+00  0.1273479E+00  0.2073430E+01  0.6134801E-01 -0.1115971E+00
  0.9665100E+01 -0.2931870E+01 -0.2310450E+00  0.9676261E-01  0.2072437E+01  0.4652973E-01 -0.8484095E-01
  0.9905930E+01 -0.1970410E+01 -0.2310450E+00  0.6551788E-01  0.2067756E+01  0.3123599E-01 -0.5759258E-01
  0.1005140E+02 -0.9899690E+00 -0.2310450E+00  0.3315599E-01  0.2063140E+01  0.1567259E-01 -0.2921797E-01
  0.1010000E+02  0.0000000E+00 -0.4105000E+00  0.1961254E-05  0.4574046E-02 -0.1961233E-05 -0.8970833E-08
  0.1005140E+02  0.9899730E+00 -0.4105000E+00  0.3318410E-01 -0.1083763E+01 -0.1553035E-01  0.2932563E-01
  0.9905930E+01  0.1970410E+01 -0.4105000E+00  0.6563927E-01 -0.1079768E+01 -0.3095106E-01  0.5788390E-01
  0.9665100E+01  0.2931880E+01 -0.4105000E+00  0.9701554E-01 -0.1075616E+01 -0.4610088E-01  0.8536232E-01
  0.9331180E+01  0.3865100E+01 -0.4105000E+00  0.1277826E+00 -0.1075167E+01 -0.6077155E-01  0.1124064E+00
  0.8907400E+01  0.4761110E+01 -0.4105000E+00  0.1583296E+00 -0.1078792E+01 -0.7479382E-01  0.1395498E+00
  0.8397840E+01  0.5611260E+01 -0.4105000E+00  0.1869139E+00 -0.1079746E+01 -0.8813971E-01  0.1648278E+00
  0.7807410E+01  0.6407370E+01 -0.4105000E+00  0.2124480E+00 -0.1076918E+01 -0.1007099E+00  0.1870606E+00
  0.7141780E+01  0.7141780E+01 -0.4105000E+00  0.2361101E+00 -0.1075170E+01 -0.1122899E+00  0.2076992E+00
  0.6407370E+01  0.7807410E+01 -0.4105000E+00  0.2593733E+00 -0.1078159E+01 -0.1226708E+00  0.2285309E+00
  0.5611260E+01  0.8397840E+01 -0.4105000E+00  0.2797412E+00 -0.1079761E+01 -0.1319089E+00  0.2466884E+00
  0.4761110E+01  0.8907410E+01 -0.4105000E+00  0.2955308E+00 -0.1077329E+01 -0.1399879E+00  0.2602727E+00
  0.3865100E+01  0.9331180E+01 -0.4105000E+00  0.3084962E+00 -0.1075179E+01 -0.1467131E+00  0.2713765E+00
  0.2931870E+01  0.9665100E+01 -0.4105000E+00  0.3209288E+00 -0.1077844E+01 -0.1518727E+00  0.2827189E+00
  0.1970410E+01  0.9905930E+01 -0.4105000E+00  0.3299769E+00 -0.1079760E+01 -0.1555972E+00  0.2909884E+00
  0.9899730E+00  0.1005140E+02 -0.4105000E+00  0.3336358E+00 -0.1077615E+01 -0.1579534E+00  0.2938769E+00
 -0.4414850E-06  0.1010000E+02 -0.4105000E+00  0.3339162E+00 -0.1075182E+01 -0.1588012E+00  0.2937384E+00
 -0.9899740E+00  0.1005140E+02 -0.4105000E+00  0.3336365E+00 -0.1077616E+01 -0.1579535E+00  0.2938775E+00
 -0.1970410E+01  0.9905930E+01 -0.4105000E+00  0.3299778E+00 -0.1079761E+01 -0.1555974E+00  0.2909893E+00
 -0.2931880E+01  0.9665100E+01 -0.4105000E+00  0.3209301E+00 -0.1077846E+01 -0.1518727E+00  0.2827204E+00
 -0.3865100E+01  0.9331180E+01 -0.4105000E+00  0.3084976E+00 -0.1075180E+01 -0.1467133E+00  0.2713779E+00
 -0.4761110E+01  0.8907400E+01 -0.4105000E+00  0.2955315E+00 -0.1077330E+01 -0.1399879E+00  0.2602734E+00
 -0.5611260E+01  0.8397840E+01 -0.4105000E+00  0.2797429E+00 -0.1079763E+01 -0.1319091E+00  0.2466902E+00
 -0.6407370E+01  0.7807410E+01 -0.4105000E+00  0.2593754E+00 -0.1078162E+01 -0.1226712E+00  0.2285331E+00
 -0.7141780E+01  0.7141780E+01 -0.4105000E+00  0.2361120E+00 -0.1075173E+01 -0.1122902E+00  0.2077012E+00