 VARIABLES="X" "Y" "Z" "abs(eta) (m)" "angle(phi) (rad)" "PRE1" "PRE2"
ZONE N=   3200 ,E =    3136 ,F=FEPOINT,ET=QUADRILATERAL
  0.1100000E+02  0.0000000E+00  0.0000000E+00  0.2426526E+00 -0.1841921E+01  0.6498616E-01  0.2337886E+00
  0.1094700E+02  0.1078190E+01  0.0000000E+00  0.2299902E+00 -0.1845416E+01  0.6236887E-01  0.2213721E+00
  0.1078860E+02  0.2145990E+01  0.0000000E+00  0.2156697E+00 -0.1851540E+01  0.5975564E-01  0.2072262E+00
  0.1052630E+02  0.3193130E+01  0.0000000E+00  0.2003822E+00 -0.1860602E+01  0.5726249E-01  0.1920261E+00
  0.1016270E+02  0.4209520E+01  0.0000000E+00  0.1838851E+00 -0.1874754E+01  0.5503660E-01  0.1754557E+00
  0.9701130E+01  0.5185360E+01  0.0000000E+00  0.1664824E+00 -0.1896027E+01  0.5319572E-01  0.1577549E+00
  0.9146170E+01  0.6111270E+01  0.0000000E+00  0.1483299E+00 -0.1927897E+01  0.5185017E-01  0.1389724E+00
  0.8503110E+01  0.6978330E+01  0.0000000E+00  0.1300418E+00 -0.1973849E+01  0.5100603E-01  0.1196213E+00
  0.7778170E+01  0.7778170E+01  0.0000000E+00  0.1119072E+00 -0.2042185E+01  0.5081977E-01  0.9970243E-01
  0.6978330E+01  0.8503110E+01  0.0000000E+00  0.9457412E-01 -0.2144490E+01  0.5132898E-01  0.7943299E-01
  0.6111270E+01  0.9146170E+01  0.0000000E+00  0.7899808E-01 -0.2298737E+01  0.5256008E-01  0.5897571E-01
  0.5185360E+01  0.9701130E+01  0.0000000E+00  0.6669144E-01 -0.2524643E+01  0.5439668E-01  0.3858431E-01
  0.4209520E+01  0.1016270E+02  0.0000000E+00  0.5985913E-01 -0.2826119E+01  0.5690506E-01  0.1857229E-01
  0.3193130E+01  0.1052630E+02  0.0000000E+00  0.6002392E-01  0.3126293E+01  0.6001690E-01 -0.9182939E-03
  0.2145990E+01  0.1078860E+02  0.0000000E+00  0.6661793E-01  0.2841988E+01  0.6365031E-01 -0.1966181E-01
  0.1078190E+01  0.1094700E+02  0.0000000E+00  0.7743927E-01  0.2632813E+01  0.6763077E-01 -0.3772161E-01
 -0.4808250E-06  0.1100000E+02  0.0000000E+00  0.9023941E-01  0.2492513E+01  0.7188836E-01 -0.5454554E-01
 -0.1078190E+01  0.1094700E+02  0.0000000E+00  0.1036126E+00  0.2398370E+01  0.7628910E-01 -0.7011100E-01
 -0.2145990E+01  0.1078860E+02  0.0000000E+00  0.1166016E+00  0.2335008E+01  0.8068462E-01 -0.8417795E-01
 -0.3193130E+01  0.1052630E+02  0.0000000E+00  0.1290298E+00  0.2289426E+01  0.8494727E-01 -0.9712180E-01
 -0.4209520E+01  0.1016270E+02  0.0000000E+00  0.1400725E+00  0.2258411E+01  0.8890341E-01 -0.1082428E+00
 -0.5185370E+01  0.9701130E+01  0.0000000E+00  0.1496100E+00  0.2236781E+01  0.9243411E-01 -0.1176397E+00
 -0.6111270E+01  0.9146160E+01  0.0000000E+00  0.1573135E+00  0.2222402E+01  0.9540496E-01 -0.1250817E+00
 -0.6978330E+01  0.8503120E+01  0.0000000E+00  0.1636273E+00  0.2211510E+01  0.9781118E-01 -0.1311750E+00
 -0.7778170E+01  0.7778170E+01  0.0000000E+00  0.1678240E+00  0.2205193E+01  0.9946790E-01 -0.1351703E+00
 -0.8503120E+01  0.6978330E+01  0.0000000E+00  0.1700082E+00  0.2202100E+01  0.1003384E+00 -0.1372406E+00
 -0.9146170E+01  0.6111270E+01  0.0000000E+00  0.1699787E+00  0.2202474E+01  0.1003723E+00 -0.1371792E+00
 -0.9701130E+01  0.5185360E+01  0.0000000E+00  0.1683977E+00  0.2204367E+01  0.9969591E-01 -0.1357148E+00
 -0.1016270E+02  0.4209520E+01  0.0000000E+00  0.1646313E+00  0.2209955E+01  0.9820589E-01 -0.1321328E+00
 -0.1052630E+02  0.3193130E+01  0.0000000E+00  0.1589061E+00  0.2219260E+01  0.9597342E-01 -0.1266501E+00
 -0.1078860E+02  0.2145990E+01  0.0000000E+00  0.1511412E+00  0.2234037E+01  0.9305367E-01 -0.1190994E+00
 -0.1094700E+02  0.1078190E+01  0.0000000E+00  0.1420773E+00  0.2253535E+01  0.8963943E-01 -0.1102304E+00
 -0.1100000E+02 -0.9616510E-06  0.0000000E+00  0.1313403E+00  0.2282307E+01  0.8576237E-01 -0.9947404E-01
 -0.1094700E+02 -0.1078190E+01  0.0000000E+00  0.1193021E+00  0.2323606E+01  0.8156583E-01 -0.8706319E-01
 -0.1078860E+02 -0.2146000E+01  0.0000000E+00  0.1061803E+00  0.2384544E+01  0.7717888E-01 -0.7292241E-01
 -0.1052630E+02 -0.3193130E+01  0.0000000E+00  0.9287919E-01  0.2470892E+01  0.7276028E-01 -0.5772768E-01
 -0.1016270E+02 -0.4209520E+01  0.0000000E+00  0.7987742E-01  0.2600218E+01  0.6845503E-01 -0.4116200E-01
 -0.9701130E+01 -0.5185360E+01  0.0000000E+00  0.6854613E-01  0.2792185E+01  0.6440429E-01 -0.2346615E-01
 -0.9146160E+01 -0.6111270E+01  0.0000000E+00  0.6091475E-01  0.3064564E+01  0.6073413E-01 -0.4687545E-02
 -0.8503110E+01 -0.6978330E+01  0.0000000E+00  0.5932826E-01 -0.2891900E+01  0.5748840E-01  0.1466037E-01
 -0.7778170E+01 -0.7778180E+01  0.0000000E+00  0.6482827E-01 -0.2579013E+01  0.5483707E-01  0.3457746E-01
 -0.6978330E+01 -0.8503110E+01  0.0000000E+00  0.7615995E-01 -0.2337598E+01  0.5284249E-01  0.5484532E-01
 -0.6111270E+01 -0.9146170E+01  0.0000000E+00  0.9125859E-01 -0.2171114E+01  0.5155239E-01  0.7530259E-01
 -0.5185360E+01 -0.9701130E+01  0.0000000E+00  0.1083787E+00 -0.2059446E+01  0.5087663E-01  0.9569484E-01
 -0.4209510E+01 -0.1016270E+02  0.0000000E+00  0.1264135E+00 -0.1985287E+01  0.5090975E-01  0.1157090E+00
 -0.3193130E+01 -0.1052630E+02  0.0000000E+00  0.1447161E+00 -0.1935417E+01  0.5160496E-01  0.1352023E+00
 -0.2145990E+01 -0.1078860E+02  0.0000000E+00  0.1627860E+00 -0.1901800E+01  0.5290415E-01  0.1539495E+00
 -0.1078190E+01 -0.1094700E+02  0.0000000E+00  0.1804845E+00 -0.1878387E+01  0.5464415E-01  0.1720136E+00
  0.1311740E-06 -0.1100000E+02  0.0000000E+00  0.1971979E+00 -0.1862936E+01  0.5679344E-01  0.1888426E+00
  0.1078190E+01 -0.1094700E+02  0.0000000E+00  0.2128221E+00 -0.1852839E+01  0.5923229E-01  0.2044133E+00
  0.2145990E+01 -0.1078860E+02  0.0000000E+00  0.2270674E+00 -0.1846605E+01  0.6183618E-01  0.2184854E+00
  0.3193140E+01 -0.1052630E+02  0.0000000E+00  0.2402470E+00 -0.1842480E+01  0.6447120E-01  0.2314348E+00
  0.4209520E+01 -0.1016270E+02  0.0000000E+00  0.2516458E+00 -0.1840323E+01  0.6700708E-01  0.2425607E+00
  0.5185360E+01 -0.9701130E+01  0.0000000E+00  0.2613264E+00 -0.1839310E+01  0.6932952E-01  0.2519622E+00
  0.6111270E+01 -0.9146160E+01  0.0000000E+00  0.2690347E+00 -0.1839114E+01  0.7132373E-01  0.2594081E+00
  0.6978330E+01 -0.8503110E+01  0.0000000E+00  0.2753478E+00 -0.1838986E+01  0.7296331E-01  0.2655047E+00
  0.7778180E+01 -0.7778170E+01  0.0000000E+00  0.2795040E+00 -0.1839130E+01  0.7410343E-01  0.2695017E+00
  0.8503120E+01 -0.6978320E+01  0.0000000E+00  0.2816608E+00 -0.1839233E+01  0.7470339E-01  0.2715736E+00
  0.9146170E+01 -0.6111270E+01  0.0000000E+00  0.2816075E+00 -0.1839364E+01  0.7472477E-01  0.2715124E+00
  0.9701130E+01 -0.5185360E+01  0.0000000E+00  0.2800707E+00 -0.1839149E+01  0.7425884E-01  0.2700467E+00
  0.1016270E+02 -0.4209520E+01  0.0000000E+00  0.2763438E+00 -0.1839014E+01  0.7323476E-01  0.2664630E+00
  0.1052630E+02 -0.3193130E+01  0.0000000E+00  0.2706502E+00 -0.1838956E+01  0.7171062E-01  0.2609772E+00
  0.1078860E+02 -0.2145990E+01  0.0000000E+00  0.2628449E+00 -0.1839356E+01  0.6974407E-01  0.2534229E+00
  0.1094700E+02 -0.1078180E+01  0.0000000E+00  0.2536904E+00 -0.1840054E+01  0.6748561E-01  0.2445496E+00
  0.1100000E+02  0.0000000E+00 -0.2568960E-01  0.2424941E+00 -0.1841906E+01  0.6494012E-01  0.2336368E+00
  0.1094700E+02  0.1078190E+01 -0.2568960E-01  0.2298419E+00 -0.1845397E+01  0.6232462E-01  0.2212306E+00
  0.1078860E+02  0.2145990E+01 -0.2568960E-01  0.2155370E+00 -0.1851511E+01  0.5971299E-01  0.2071003E+00
  0.1052630E+02  0.3193130E+01 -0.2568960E-01  0.2002526E+00 -0.1860584E+01  0.5722188E-01  0.1919030E+00
  0.1016270E+02  0.4209520E+01 -0.2568960E-01  0.1837632E+00 -0.1874741E+01  0.5499781E-01  0.1753401E+00
  0.9701130E+01  0.5185360E+01 -0.2568960E-01  0.1663723E+00 -0.1896009E+01  0.5315763E-01  0.1576516E+00
  0.9146170E+01  0.6111270E+01 -0.2568960E-01  0.1482342E+00 -0.1927862E+01  0.5181179E-01  0.1388845E+00
  0.8503110E+01  0.6978330E+01 -0.2568960E-01  0.1299547E+00 -0.1973830E+01  0.5096959E-01  0.1195422E+00
  0.7778170E+01  0.7778170E+01 -0.2568960E-01  0.1118300E+00 -0.2042178E+01  0.5078394E-01  0.9963403E-01
  0.6978330E+01  0.8503110E+01 -0.2568960E-01  0.9450711E-01 -0.2144487E+01  0.5129234E-01  0.7937688E-01
  0.6111270E+01  0.9146170E+01 -0.2568960E-01  0.7893944E-01 -0.2298733E+01  0.5252084E-01  0.5893214E-01
  0.5185360E+01  0.9701130E+01 -0.2568960E-01  0.6664236E-01 -0.2524678E+01  0.5435799E-01  0.3855402E-01
  0.4209520E+01  0.1016270E+02 -0.2568960E-01  0.5981544E-01 -0.2826195E+01  0.5686494E-01  0.1855439E-01
  0.3193130E+01  0.1052630E+02 -0.2568960E-01  0.5998161E-01  0.3126153E+01  0.5997446E-01 -0.9260639E-03
  0.2145990E+01  0.1078860E+02 -0.2568960E-01  0.6657397E-01  0.2841783E+01  0.6360428E-01 -0.1966187E-01
  0.1078190E+01  0.1094700E+02 -0.2568960E-01  0.7738991E-01  0.2632689E+01  0.6758299E-01 -0.3770593E-01
 -0.4808250E-06  0.1100000E+02 -0.2568960E-01  0.9018255E-01  0.2492417E+01  0.7183784E-01 -0.5451805E-01
 -0.1078190E+01  0.1094700E+02 -0.2568960E-01  0.1035503E+00  0.2398263E+01  0.7623571E-01 -0.7007694E-01
 -0.2145990E+01  0.1078860E+02 -0.2568960E-01  0.1165367E+00  0.2334875E+01  0.8062850E-01 -0.8414185E-01
 -0.3193130E+01  0.1052630E+02 -0.2568960E-01  0.1289517E+00  0.2289343E+01  0.8488779E-01 -0.9707015E-01
 -0.4209520E+01  0.1016270E+02 -0.2568960E-01  0.1399858E+00  0.2258343E+01  0.8884104E-01 -0.1081818E+00
 -0.5185370E+01  0.9701130E+01 -0.2568960E-01  0.1495202E+00  0.2236706E+01  0.9236976E-01 -0.1175760E+00
 -0.6111270E+01  0.9146160E+01 -0.2568960E-01  0.1572269E+00  0.2222302E+01  0.9533989E-01 -0.1250224E+00
 -0.6978330E+01  0.8503120E+01 -0.2568960E-01  0.1635289E+00  0.2211441E+01  0.9774329E-01 -0.1311028E+00
 -0.7778170E+01  0.7778170E+01 -0.2568960E-01  0.1677195E+00  0.2205134E+01  0.9939799E-01 -0.1350920E+00
 -0.8503120E+01  0.6978330E+01 -0.2568960E-01  0.1699057E+00  0.2202032E+01  0.1002686E+00 -0.1371647E+00
 -0.9146170E+01  0.6111270E+01 -0.2568960E-01  0.1698856E+00  0.2202381E+01  0.1003047E+00 -0.1371135E+00
 -0.9701130E+01  0.5185360E+01 -0.2568960E-01  0.1682964E+00  0.2204300E+01  0.9962676E-01 -0.1356400E+00
 -0.1016270E+02  0.4209520E+01 -0.2568960E-01  0.1645289E+00  0.2209894E+01  0.9813684E-01 -0.1320565E+00
 -0.1052630E+02  0.3193130E+01 -0.2568960E-01  0.1588101E+00  0.2219190E+01  0.9590652E-01 -0.1265804E+00
 -0.1078860E+02  0.2145990E+01 -0.2568960E-01  0.1510582E+00  0.2233934E+01  0.9299030E-01 -0.1190437E+00
 -0.1094700E+02  0.1078190E+01 -0.2568960E-01  0.1419923E+00  0.2253455E+01  0.8957698E-01 -0.1101715E+00
 -0.1100000E+02 -0.9616510E-06 -0.2568960E-01  0.1312589E+00  0.2282235E+01  0.8570215E-01 -0.9941857E-01
 -0.1094700E+02 -0.1078190E+01 -0.2568960E-01  0.1192297E+00  0.2323515E+01  0.8150849E-01 -0.8701772E-01
 -0.1078860E+02 -0.2146000E+01 -0.2568960E-01  0.1061206E+00  0.2384398E+01  0.7712486E-01 -0.7289270E-01
 -0.1052630E+02 -0.3193130E+01 -0.2568960E-01  0.9282254E-01  0.2470776E+01  0.7270925E-01 -0.5770086E-01
 -0.1016270E+02 -0.4209520E+01 -0.2568960E-01  0.7982627E-01  0.2600114E+01  0.6840691E-01 -0.4114276E-01
 -0.9701130E+01 -0.5185360E+01 -0.2568960E-01  0.6850063E-01  0.2792054E+01  0.6435845E-01 -0.2345903E-01
 -0.9146160E+01 -0.6111270E+01 -0.2568960E-01  0.6087137E-01  0.3064371E+01  0.6068997E-01 -0.4695902E-02
 -0.8503110E+01 -0.6978330E+01 -0.2568960E-01  0.5928446E-01 -0.2892008E+01  0.5744753E-01  0.1464337E-01
 -0.7778170E+01 -0.7778180E+01 -0.2568960E-01  0.6478101E-01 -0.2579061E+01  0.5479873E-01  0.3454965E-01
 -0.6978330E+01 -0.8503110E+01 -0.2568960E-01  0.7610481E-01 -0.2337605E+01  0.5280458E-01  0.5480528E-01
 -0.6111270E+01 -0.9146170E+01 -0.2568960E-01  0.9119340E-01 -0.2171091E+01  0.5151385E-01  0.7524998E-01
 -0.5185360E+01 -0.9701130E+01 -0.2568960E-01  0.1083032E+00 -0.2059433E+01  0.5084003E-01  0.9562887E-01
 -0.4209510E+01 -0.1016270E+02 -0.2568960E-01  0.1263274E+00 -0.1985276E+01  0.5087382E-01  0.1156308E+00
 -0.3193130E+01 -0.1052630E+02 -0.2568960E-01  0.1446200E+00 -0.1935397E+01  0.5156806E-01  0.1351136E+00
 -0.2145990E+01 -0.1078860E+02 -0.2568960E-01  0.1626826E+00 -0.1901765E+01  0.5286516E-01  0.1538535E+00
 -0.1078190E+01 -0.1094700E+02 -0.2568960E-01  0.1803660E+00 -0.1878369E+01  0.5460505E-01  0.1719017E+00
  0.1311740E-06 -0.1100000E+02 -0.2568960E-01  0.1970679E+00 -0.1862922E+01  0.5675326E-01  0.1887189E+00
  0.1078190E+01 -0.1094700E+02 -0.2568960E-01  0.2126851E+00 -0.1852821E+01  0.5919046E-01  0.2042828E+00
  0.2145990E+01 -0.1078860E+02 -0.2568960E-01  0.2269283E+00 -0.1846578E+01  0.6179243E-01  0.2183533E+00
  0.3193140E+01 -0.1052630E+02 -0.2568960E-01  0.2400922E+00 -0.1842463E+01  0.6442562E-01  0.2312869E+00
  0.4209520E+01 -0.1016270E+02 -0.2568960E-01  0.2514814E+00 -0.1840308E+01  0.6695969E-01  0.2424031E+00
  0.5185360E+01 -0.9701130E+01 -0.2568960E-01  0.2611594E+00 -0.1839293E+01  0.6928083E-01  0.2518023E+00
  0.6111270E+01 -0.9146160E+01 -0.2568960E-01  0.2688719E+00 -0.1839091E+01  0.7127461E-01  0.2592528E+00
  0.6978330E+01 -0.8503110E+01 -0.2568960E-01  0.2751717E+00 -0.1838968E+01  0.7291201E-01  0.2653362E+00
  0.7778180E+01 -0.7778170E+01 -0.2568960E-01  0.2793222E+00 -0.1839113E+01  0.7405086E-01  0.2693276E+00
  0.8503120E+01 -0.6978320E+01 -0.2568960E-01  0.2814810E+00 -0.1839216E+01  0.7465097E-01  0.2714016E+00
  0.9146170E+01 -0.6111270E+01 -0.2568960E-01  0.2814374E+00 -0.1839342E+01  0.7467370E-01  0.2713501E+00
  0.9701130E+01 -0.5185360E+01 -0.2568960E-01  0.2798921E+00 -0.1839131E+01  0.7420679E-01  0.2698758E+00
  0.1016270E+02 -0.4209520E+01 -0.2568960E-01  0.2761638E+00 -0.1838998E+01  0.7318280E-01  0.2662907E+00
  0.1052630E+02 -0.3193130E+01 -0.2568960E-01  0.2704770E+00 -0.1838938E+01  0.7166018E-01  0.2608114E+00
  0.1078860E+02 -0.2145990E+01 -0.2568960E-01  0.2626854E+00 -0.1839332E+01  0.6969580E-01  0.2532709E+00
  0.1094700E+02 -0.1078180E+01 -0.2568960E-01  0.2535283E+00 -0.1840036E+01  0.6743809E-01  0.2443946E+00
  0.1100000E+02  0.0000000E+00 -0.1027320E+00  0.2419982E+00 -0.1841899E+01  0.6480571E-01  0.2331595E+00
  0.1094700E+02  0.1078190E+01 -0.1027320E+00  0.2293822E+00 -0.1845373E+01  0.6219455E-01  0.2207896E+00
  0.1078860E+02  0.2145990E+01 -0.1027320E+00  0.2151285E+00 -0.1851446E+01  0.5958624E-01  0.2067117E+00
  0.1052630E+02  0.3193130E+01 -0.1027320E+00  0.1998512E+00 -0.1860545E+01  0.5709983E-01  0.1915205E+00
  0.1016270E+02  0.4209520E+01 -0.1027320E+00  0.1833842E+00 -0.1874717E+01  0.5488021E-01  0.1749798E+00
  0.9701130E+01  0.5185360E+01 -0.1027320E+00  0.1660332E+00 -0.1895956E+01  0.5304099E-01  0.1573330E+00
  0.9146170E+01  0.6111270E+01 -0.1027320E+00  0.1479406E+00 -0.1927742E+01  0.5169253E-01  0.1386157E+00
  0.8503110E+01  0.6978330E+01 -0.1027320E+00  0.1296863E+00 -0.1973758E+01  0.5085581E-01  0.1192989E+00
  0.7778170E+01  0.7778170E+01 -0.1027320E+00  0.1115932E+00 -0.2042137E+01  0.5067239E-01  0.9942508E-01
  0.6978330E+01  0.8503110E+01 -0.1027320E+00  0.9430251E-01 -0.2144428E+01  0.5117666E-01  0.7920803E-01
  0.6111270E+01  0.9146170E+01 -0.1027320E+00  0.7876038E-01 -0.2298662E+01  0.5239752E-01  0.5880218E-01
  0.5185360E+01  0.9701130E+01 -0.1027320E+00  0.6649189E-01 -0.2524702E+01  0.5423617E-01  0.3846568E-01
  0.4209520E+01  0.1016270E+02 -0.1027320E+00  0.5968302E-01 -0.2826305E+01  0.5674108E-01  0.1850710E-01
  0.3193130E+01  0.1052630E+02 -0.1027320E+00  0.5985012E-01  0.3125868E+01  0.5984272E-01 -0.9411040E-03
  0.2145990E+01  0.1078860E+02 -0.1027320E+00  0.6643697E-01  0.2841252E+01  0.6346297E-01 -0.1965507E-01
  0.1078190E+01  0.1094700E+02 -0.1027320E+00  0.7723476E-01  0.2632425E+01  0.6743756E-01 -0.3764816E-01
 -0.4808250E-06  0.1100000E+02 -0.1027320E+00  0.9000188E-01  0.2492269E+01  0.7168584E-01 -0.5441947E-01
 -0.1078190E+01  0.1094700E+02 -0.1027320E+00  0.1033524E+00  0.2398058E+01  0.7607571E-01 -0.6995858E-01
 -0.2145990E+01  0.1078860E+02 -0.1027320E+00  0.1163349E+00  0.2334553E+01  0.8046181E-01 -0.8402207E-01
 -0.3193130E+01  0.1052630E+02 -0.1027320E+00  0.1287070E+00  0.2289197E+01  0.8471252E-01 -0.9689825E-01
 -0.4209520E+01  0.1016270E+02 -0.1027320E+00  0.1397093E+00  0.2258268E+01  0.8865742E-01 -0.1079748E+00
 -0.5185370E+01  0.9701130E+01 -0.1027320E+00  0.1492389E+00  0.2236588E+01  0.9218217E-01 -0.1173657E+00
 -0.6111270E+01  0.9146160E+01 -0.1027320E+00  0.1569599E+00  0.2222093E+01  0.9515195E-01 -0.1248299E+00
 -0.6978330E+01  0.8503120E+01 -0.1027320E+00  0.1632204E+00  0.2211342E+01  0.9754592E-01 -0.1308652E+00
 -0.7778170E+01  0.7778170E+01 -0.1027320E+00  0.1673892E+00  0.2205082E+01  0.9919516E-01 -0.1348312E+00
 -0.8503120E+01  0.6978330E+01 -0.1027320E+00  0.1695856E+00  0.2201941E+01  0.1000672E+00 -0.1369154E+00
 -0.9146170E+01  0.6111270E+01 -0.1027320E+00  0.1695974E+00  0.2202199E+01  0.1001095E+00 -0.1368991E+00
 -0.9701130E+01  0.5185360E+01 -0.1027320E+00  0.1679797E+00  0.2204207E+01  0.9942668E-01 -0.1353939E+00
 -0.1016270E+02  0.4209520E+01 -0.1027320E+00  0.1642048E+00  0.2209840E+01  0.9793638E-01 -0.1318017E+00
 -0.1052630E+02  0.3193130E+01 -0.1027320E+00  0.1585106E+00  0.2219086E+01  0.9571242E-01 -0.1263516E+00
 -0.1078860E+02  0.2145990E+01 -0.1027320E+00  0.1508013E+00  0.2233711E+01  0.9280573E-01 -0.1188618E+00
 -0.1094700E+02  0.1078190E+01 -0.1027320E+00  0.1417250E+00  0.2253326E+01  0.8939418E-01 -0.1099756E+00
 -0.1100000E+02 -0.9616510E-06 -0.1027320E+00  0.1309998E+00  0.2282149E+01  0.8552433E-01 -0.9922966E-01
 -0.1094700E+02 -0.1078190E+01 -0.1027320E+00  0.1190023E+00  0.2323354E+01  0.8133901E-01 -0.8686499E-01
 -0.1078860E+02 -0.2146000E+01 -0.1027320E+00  0.1059343E+00  0.2384038E+01  0.7696325E-01 -0.7279247E-01
 -0.1052630E+02 -0.3193130E+01 -0.1027320E+00  0.9264351E-01  0.2470539E+01  0.7255536E-01 -0.5760678E-01
 -0.1016270E+02 -0.4209520E+01 -0.1027320E+00  0.7966446E-01  0.2599946E+01  0.6826136E-01 -0.4107084E-01
 -0.9701130E+01 -0.5185360E+01 -0.1027320E+00  0.6835884E-01  0.2791771E+01  0.6421861E-01 -0.2342864E-01
 -0.9146160E+01 -0.6111270E+01 -0.1027320E+00  0.6073642E-01  0.3063882E+01  0.6055311E-01 -0.4715144E-02
 -0.8503110E+01 -0.6978330E+01 -0.1027320E+00  0.5915025E-01 -0.2892213E+01  0.5732049E-01  0.1459843E-01
 -0.7778170E+01 -0.7778180E+01 -0.1027320E+00  0.6463716E-01 -0.2579108E+01  0.5467870E-01  0.3447031E-01
 -0.6978330E+01 -0.8503110E+01 -0.1027320E+00  0.7593649E-01 -0.2337569E+01  0.5268586E-01  0.5468592E-01
 -0.6111270E+01 -0.9146170E+01 -0.1027320E+00  0.9099416E-01 -0.2170972E+01  0.5139238E-01  0.7509168E-01
 -0.5185360E+01 -0.9701130E+01 -0.1027320E+00  0.1080731E+00 -0.2059367E+01  0.5072567E-01  0.9542901E-01
 -0.4209510E+01 -0.1016270E+02 -0.1027320E+00  0.1260622E+00 -0.1985237E+01  0.5076251E-01  0.1153899E+00
 -0.3193130E+01 -0.1052630E+02 -0.1027320E+00  0.1443242E+00 -0.1935332E+01  0.5145381E-01  0.1348406E+00
 -0.2145990E+01 -0.1078860E+02 -0.1027320E+00  0.1623644E+00 -0.1901658E+01  0.5274532E-01  0.1535582E+00
 -0.1078190E+01 -0.1094700E+02 -0.1027320E+00  0.1800004E+00 -0.1878322E+01  0.5448640E-01  0.1715557E+00
  0.1311740E-06 -0.1100000E+02 -0.1027320E+00  0.1966624E+00 -0.1862902E+01  0.5663273E-01  0.1883318E+00
  0.1078190E+01 -0.1094700E+02 -0.1027320E+00  0.2122599E+00 -0.1852789E+01  0.5906554E-01  0.2038762E+00
  0.2145990E+01 -0.1078860E+02 -0.1027320E+00  0.2265005E+00 -0.1846521E+01  0.6166344E-01  0.2179451E+00
  0.3193140E+01 -0.1052630E+02 -0.1027320E+00  0.2396132E+00 -0.1842442E+01  0.6429235E-01  0.2308267E+00
  0.4209520E+01 -0.1016270E+02 -0.1027320E+00  0.2509679E+00 -0.1840303E+01  0.6682173E-01  0.2419085E+00
  0.5185360E+01 -0.9701130E+01 -0.1027320E+00  0.2606412E+00 -0.1839282E+01  0.6914072E-01  0.2513034E+00
  0.6111270E+01 -0.9146160E+01 -0.1027320E+00  0.2683708E+00 -0.1839064E+01  0.7113471E-01  0.2587716E+00
  0.6978330E+01 -0.8503110E+01 -0.1027320E+00  0.2746258E+00 -0.1838963E+01  0.7276601E-01  0.2648102E+00
  0.7778180E+01 -0.7778170E+01 -0.1027320E+00  0.2787527E+00 -0.1839117E+01  0.7390079E-01  0.2687783E+00
  0.8503120E+01 -0.6978320E+01 -0.1027320E+00  0.2809233E+00 -0.1839213E+01  0.7450236E-01  0.2708640E+00
  0.9146170E+01 -0.6111270E+01 -0.1027320E+00  0.2809147E+00 -0.1839323E+01  0.7452991E-01  0.2708474E+00
  0.9701130E+01 -0.5185360E+01 -0.1027320E+00  0.2793376E+00 -0.1839128E+01  0.7405888E-01  0.2693413E+00
  0.1016270E+02 -0.4209520E+01 -0.1027320E+00  0.2756009E+00 -0.1839001E+01  0.7303440E-01  0.2657476E+00
  0.1052630E+02 -0.3193130E+01 -0.1027320E+00  0.2699400E+00 -0.1838930E+01  0.7151593E-01  0.2602942E+00
  0.1078860E+02 -0.2145990E+01 -0.1027320E+00  0.2621956E+00 -0.1839301E+01  0.6955785E-01  0.2528008E+00
  0.1094700E+02 -0.1078180E+01 -0.1027320E+00  0.2530248E+00 -0.1840022E+01  0.6730082E-01  0.2439101E+00
  0.1100000E+02  0.0000000E+00 -0.2310450E+00  0.2411842E+00 -0.1841884E+01  0.6458430E-01  0.2323761E+00
  0.1094700E+02  0.1078190E+01 -0.2310450E+00  0.2286217E+00 -0.1845336E+01  0.6198030E-01  0.2200598E+00
  0.1078860E+02  0.2145990E+01 -0.2310450E+00  0.2144571E+00 -0.1851338E+01  0.5937802E-01  0.2060730E+00
  0.1052630E+02  0.3193130E+01 -0.2310450E+00  0.1991883E+00 -0.1860494E+01  0.5690071E-01  0.1908881E+00
  0.1016270E+02  0.4209520E+01 -0.2310450E+00  0.1827617E+00 -0.1874685E+01  0.5468826E-01  0.1743876E+00
  0.9701130E+01  0.5185360E+01 -0.2310450E+00  0.1654717E+00 -0.1895890E+01  0.5285132E-01  0.1568044E+00
  0.9146170E+01  0.6111270E+01 -0.2310450E+00  0.1474572E+00 -0.1927561E+01  0.5149861E-01  0.1381721E+00
  0.8503110E+01  0.6978330E+01 -0.2310450E+00  0.1292442E+00 -0.1973671E+01  0.5067209E-01  0.1188966E+00
  0.7778170E+01  0.7778170E+01 -0.2310450E+00  0.1112036E+00 -0.2042102E+01  0.5049200E-01  0.9907972E-01
  0.6978330E+01  0.8503110E+01 -0.2310450E+00  0.9396543E-01 -0.2144389E+01  0.5099061E-01  0.7892692E-01
  0.6111270E+01  0.9146170E+01 -0.2310450E+00  0.7846577E-01 -0.2298588E+01  0.5219719E-01  0.5858609E-01
  0.5185360E+01  0.9701130E+01 -0.2310450E+00  0.6624699E-01 -0.2524783E+01  0.5403953E-01  0.3831962E-01
  0.4209520E+01  0.1016270E+02 -0.2310450E+00  0.5946674E-01 -0.2826553E+01  0.5654003E-01  0.1842601E-01
  0.3193130E+01  0.1052630E+02 -0.2310450E+00  0.5963738E-01  0.3125362E+01  0.5962953E-01 -0.9679318E-03
  0.2145990E+01  0.1078860E+02 -0.2310450E+00  0.6621415E-01  0.2840334E+01  0.6323211E-01 -0.1964724E-01
  0.1078190E+01  0.1094700E+02 -0.2310450E+00  0.7698081E-01  0.2631996E+01  0.6719974E-01 -0.3755317E-01
 -0.4808250E-06  0.1100000E+02 -0.2310450E+00  0.8970812E-01  0.2491990E+01  0.7143677E-01 -0.5426173E-01
 -0.1078190E+01  0.1094700E+02 -0.2310450E+00  0.1030284E+00  0.2397713E+01  0.7581317E-01 -0.6976543E-01
 -0.2145990E+01  0.1078860E+02 -0.2310450E+00  0.1160058E+00  0.2333992E+01  0.8018723E-01 -0.8382935E-01
 -0.3193130E+01  0.1052630E+02 -0.2310450E+00  0.1283030E+00  0.2288948E+01  0.8442265E-01 -0.9661512E-01
 -0.4209520E+01  0.1016270E+02 -0.2310450E+00  0.1392595E+00  0.2258104E+01  0.8835436E-01 -0.1076416E+00
 -0.5185370E+01  0.9701130E+01 -0.2310450E+00  0.1487751E+00  0.2236378E+01  0.9187113E-01 -0.1170201E+00
 -0.6111270E+01  0.9146160E+01 -0.2310450E+00  0.1565238E+00  0.2221714E+01  0.9484039E-01 -0.1245191E+00
 -0.6978330E+01  0.8503120E+01 -0.2310450E+00  0.1627111E+00  0.2211161E+01  0.9721787E-01 -0.1304744E+00
 -0.7778170E+01  0.7778170E+01 -0.2310450E+00  0.1668500E+00  0.2204955E+01  0.9885863E-01 -0.1344094E+00
 -0.8503120E+01  0.6978330E+01 -0.2310450E+00  0.1690576E+00  0.2201769E+01  0.9973229E-01 -0.1365062E+00
 -0.9146170E+01  0.6111270E+01 -0.2310450E+00  0.1691269E+00  0.2201861E+01  0.9978569E-01 -0.1365530E+00
 -0.9701130E+01  0.5185360E+01 -0.2310450E+00  0.1674568E+00  0.2204032E+01  0.9909358E-01 -0.1349898E+00
 -0.1016270E+02  0.4209520E+01 -0.2310450E+00  0.1636763E+00  0.2209709E+01  0.9760389E-01 -0.1313903E+00
 -0.1052630E+02  0.3193130E+01 -0.2310450E+00  0.1580155E+00  0.2218898E+01  0.9538988E-01 -0.1259749E+00
 -0.1078860E+02  0.2145990E+01 -0.2310450E+00  0.1503816E+00  0.2233311E+01  0.9249994E-01 -0.1185680E+00
 -0.1094700E+02  0.1078190E+01 -0.2310450E+00  0.1412845E+00  0.2253101E+01  0.8909161E-01 -0.1096539E+00
 -0.1100000E+02 -0.9616510E-06 -0.2310450E+00  0.1305777E+00  0.2281972E+01  0.8523133E-01 -0.9892493E-01
 -0.1094700E+02 -0.1078190E+01 -0.2310450E+00  0.1186279E+00  0.2323076E+01  0.8105905E-01 -0.8661409E-01
 -0.1078860E+02 -0.2146000E+01 -0.2310450E+00  0.1056313E+00  0.2383412E+01  0.7669766E-01 -0.7263220E-01
 -0.1052630E+02 -0.3193130E+01 -0.2310450E+00  0.9235073E-01  0.2470148E+01  0.7230356E-01 -0.5745304E-01
 -0.1016270E+02 -0.4209520E+01 -0.2310450E+00  0.7940175E-01  0.2599627E+01  0.6802319E-01 -0.4095709E-01
 -0.9701130E+01 -0.5185360E+01 -0.2310450E+00  0.6812759E-01  0.2791313E+01  0.6399065E-01 -0.2337872E-01
 -0.9146160E+01 -0.6111270E+01 -0.2310450E+00  0.6051671E-01  0.3063020E+01  0.6033000E-01 -0.4750046E-02
 -0.8503110E+01 -0.6978330E+01 -0.2310450E+00  0.5893198E-01 -0.2892605E+01  0.5711466E-01  0.1452218E-01
 -0.7778170E+01 -0.7778180E+01 -0.2310450E+00  0.6440172E-01 -0.2579247E+01  0.5448430E-01  0.3433717E-01
 -0.6978330E+01 -0.8503110E+01 -0.2310450E+00  0.7566150E-01 -0.2337559E+01  0.5249450E-01  0.5448844E-01
 -0.6111270E+01 -0.9146170E+01 -0.2310450E+00  0.9066639E-01 -0.2170815E+01  0.5119550E-01  0.7482924E-01
 -0.5185360E+01 -0.9701130E+01 -0.2310450E+00  0.1076929E+00 -0.2059304E+01  0.5054120E-01  0.9509651E-01
 -0.4209510E+01 -0.1016270E+02 -0.2310450E+00  0.1256257E+00 -0.1985197E+01  0.5058214E-01  0.1149924E+00
 -0.3193130E+01 -0.1052630E+02 -0.2310450E+00  0.1438362E+00 -0.1935251E+01  0.5126889E-01  0.1343888E+00
 -0.2145990E+01 -0.1078860E+02 -0.2310450E+00  0.1618410E+00 -0.1901491E+01  0.5254975E-01  0.1530720E+00
 -0.1078190E+01 -0.1094700E+02 -0.2310450E+00  0.1793952E+00 -0.1878262E+01  0.5429298E-01  0.1709822E+00
  0.1311740E-06 -0.1100000E+02 -0.2310450E+00  0.1959966E+00 -0.1862873E+01  0.5643561E-01  0.1876958E+00
  0.1078190E+01 -0.1094700E+02 -0.2310450E+00  0.2115578E+00 -0.1852744E+01  0.5886113E-01  0.2032045E+00
  0.2145990E+01 -0.1078860E+02 -0.2310450E+00  0.2257966E+00 -0.1846424E+01  0.6145088E-01  0.2172738E+00
  0.3193140E+01 -0.1052630E+02 -0.2310450E+00  0.2388205E+00 -0.1842411E+01  0.6407242E-01  0.2300651E+00
  0.4209520E+01 -0.1016270E+02 -0.2310450E+00  0.2501246E+00 -0.1840290E+01  0.6659412E-01  0.2410965E+00
  0.5185360E+01 -0.9701130E+01 -0.2310450E+00  0.2597851E+00 -0.1839261E+01  0.6890841E-01  0.2504794E+00
  0.6111270E+01 -0.9146160E+01 -0.2310450E+00  0.2675479E+00 -0.1839009E+01  0.7090244E-01  0.2579820E+00
  0.6978330E+01 -0.8503110E+01 -0.2310450E+00  0.2737227E+00 -0.1838948E+01  0.7252271E-01  0.2639405E+00
  0.7778180E+01 -0.7778170E+01 -0.2310450E+00  0.2778184E+00 -0.1839112E+01  0.7365190E-01  0.2678777E+00
  0.8503120E+01 -0.6978320E+01 -0.2310450E+00  0.2800013E+00 -0.1839202E+01  0.7425475E-01  0.2699758E+00
  0.9146170E+01 -0.6111270E+01 -0.2310450E+00  0.2800560E+00 -0.1839280E+01  0.7429032E-01  0.2700228E+00
  0.9701130E+01 -0.5185360E+01 -0.2310450E+00  0.2784210E+00 -0.1839116E+01  0.7381260E-01  0.2684585E+00
  0.1016270E+02 -0.4209520E+01 -0.2310450E+00  0.2746768E+00 -0.1838995E+01  0.7278782E-01  0.2648571E+00
  0.1052630E+02 -0.3193130E+01 -0.2310450E+00  0.2690519E+00 -0.1838913E+01  0.7127611E-01  0.2594391E+00
  0.1078860E+02 -0.2145990E+01 -0.2310450E+00  0.2613903E+00 -0.1839239E+01  0.6932870E-01  0.2520286E+00
  0.1094700E+02 -0.1078180E+01 -0.2310450E+00  0.2521928E+00 -0.1839998E+01  0.6707372E-01  0.2431097E+00
  0.1100000E+02  0.0000000E+00 -0.4105000E+00  0.2400542E+00 -0.1841810E+01  0.6426440E-01  0.2312923E+00
  0.1094700E+02  0.1078190E+01 -0.4105000E+00  0.2275625E+00 -0.1845241E+01  0.6167231E-01  0.2190461E+00
  0.1078860E+02  0.2145990E+01 -0.4105000E+00  0.2135045E+00 -0.1851174E+01  0.5908072E-01  0.2051673E+00
  0.1052630E+02  0.3193130E+01 -0.4105000E+00  0.1982640E+00 -0.1860389E+01  0.5661663E-01  0.1900083E+00
  0.1016270E+02  0.4209520E+01 -0.4105000E+00  0.1818966E+00 -0.1874603E+01  0.5441516E-01  0.1735666E+00
  0.9701130E+01  0.5185360E+01 -0.4105000E+00  0.1646906E+00 -0.1895776E+01  0.5258404E-01  0.1560702E+00
  0.9146170E+01  0.6111270E+01 -0.4105000E+00  0.1467765E+00 -0.1927335E+01  0.5122984E-01  0.1375458E+00
  0.8503110E+01  0.6978330E+01 -0.4105000E+00  0.1286276E+00 -0.1973541E+01  0.5041489E-01  0.1183359E+00
  0.7778170E+01  0.7778170E+01 -0.4105000E+00  0.1106611E+00 -0.2042030E+01  0.5023859E-01  0.9860004E-01
  0.6978330E+01  0.8503110E+01 -0.4105000E+00  0.9349681E-01 -0.2144321E+01  0.5073104E-01  0.7853672E-01
  0.6111270E+01  0.9146170E+01 -0.4105000E+00  0.7805896E-01 -0.2298512E+01  0.5192211E-01  0.5828632E-01
  0.5185360E+01  0.9701130E+01 -0.4105000E+00  0.6590505E-01 -0.2524907E+01  0.5376532E-01  0.3811517E-01
  0.4209520E+01  0.1016270E+02 -0.4105000E+00  0.5916280E-01 -0.2826912E+01  0.5625762E-01  0.1831166E-01
  0.3193130E+01  0.1052630E+02 -0.4105000E+00  0.5933863E-01  0.3124659E+01  0.5933012E-01 -0.1004773E-02
  0.2145990E+01  0.1078860E+02 -0.4105000E+00  0.6590035E-01  0.2839192E+01  0.6291007E-01 -0.1962598E-01
  0.1078190E+01  0.1094700E+02 -0.4105000E+00  0.7662429E-01  0.2631349E+01  0.6686432E-01 -0.3742251E-01
 -0.4808250E-06  0.1100000E+02 -0.4105000E+00  0.8929661E-01  0.2491515E+01  0.7108337E-01 -0.5404664E-01
 -0.1078190E+01  0.1094700E+02 -0.4105000E+00  0.1025720E+00  0.2397174E+01  0.7543981E-01 -0.6949706E-01
 -0.2145990E+01  0.1078860E+02 -0.4105000E+00  0.1155285E+00  0.2333248E+01  0.7979514E-01 -0.8354381E-01
 -0.3193130E+01  0.1052630E+02 -0.4105000E+00  0.1277357E+00  0.2288521E+01  0.8400818E-01 -0.9622382E-01
 -0.4209520E+01  0.1016270E+02 -0.4105000E+00  0.1386310E+00  0.2257778E+01  0.8792062E-01 -0.1071845E+00
 -0.5185370E+01  0.9701130E+01 -0.4105000E+00  0.1481222E+00  0.2236002E+01  0.9142406E-01 -0.1165411E+00
 -0.6111270E+01  0.9146160E+01 -0.4105000E+00  0.1558890E+00  0.2221173E+01  0.9438857E-01 -0.1240652E+00
 -0.6978330E+01  0.8503120E+01 -0.4105000E+00  0.1619951E+00  0.2210817E+01  0.9674546E-01 -0.1299335E+00
 -0.7778170E+01  0.7778170E+01 -0.4105000E+00  0.1660969E+00  0.2204673E+01  0.9837471E-01 -0.1338305E+00