 VARIABLES="X" "Y" "Z" "abs(eta) (m)" "angle(phi) (rad)" "PRE1" "PRE2"
ZONE N=   3200 ,E =    3136 ,F=FEPOINT,ET=QUADRILATERAL
  0.1010000E+02  0.0000000E+00  0.0000000E+00  0.2124981E+00 -0.1856117E+01  0.5981085E-01  0.2039071E+00
  0.1005140E+02  0.9899730E+00  0.0000000E+00  0.2299023E+00 -0.1847960E+01  0.6290797E-01  0.2211282E+00
  0.9905930E+01  0.1970410E+01  0.0000000E+00  0.2462911E+00 -0.1843078E+01  0.6623508E-01  0.2372177E+00
  0.9665100E+01  0.2931880E+01  0.0000000E+00  0.2608673E+00 -0.1840799E+01  0.6958214E-01  0.2514161E+00
  0.9331180E+01  0.3865100E+01  0.0000000E+00  0.2738950E+00 -0.1839608E+01  0.7274266E-01  0.2640586E+00
  0.8907400E+01  0.4761110E+01  0.0000000E+00  0.2845133E+00 -0.1839773E+01  0.7560798E-01  0.2742831E+00
  0.8397840E+01  0.5611260E+01  0.0000000E+00  0.2935887E+00 -0.1840274E+01  0.7816156E-01  0.2829931E+00
  0.7807410E+01  0.6407370E+01  0.0000000E+00  0.3003117E+00 -0.1841019E+01  0.8016691E-01  0.2894139E+00
  0.7141780E+01  0.7141780E+01  0.0000000E+00  0.3052493E+00 -0.1841383E+01  0.8159225E-01  0.2941425E+00
  0.6407370E+01  0.7807410E+01  0.0000000E+00  0.3073866E+00 -0.1841874E+01  0.8230875E-01  0.2961617E+00
  0.5611260E+01  0.8397840E+01  0.0000000E+00  0.3077411E+00 -0.1841869E+01  0.8240230E-01  0.2965037E+00
  0.4761110E+01  0.8907410E+01  0.0000000E+00  0.3055959E+00 -0.1841614E+01  0.8175288E-01  0.2944576E+00
  0.3865100E+01  0.9331180E+01  0.0000000E+00  0.3016946E+00 -0.1840938E+01  0.8051277E-01  0.2907530E+00
  0.2931870E+01  0.9665100E+01  0.0000000E+00  0.2950383E+00 -0.1840507E+01  0.7861367E-01  0.2843722E+00
  0.1970410E+01  0.9905930E+01  0.0000000E+00  0.2866165E+00 -0.1839843E+01  0.7618635E-01  0.2763054E+00
  0.9899730E+00  0.1005140E+02  0.0000000E+00  0.2759216E+00 -0.1839692E+01  0.7330334E-01  0.2660064E+00
 -0.4414850E-06  0.1010000E+02  0.0000000E+00  0.2637644E+00 -0.1840220E+01  0.7020772E-01  0.2542490E+00
 -0.9899740E+00  0.1005140E+02  0.0000000E+00  0.2493263E+00 -0.1842606E+01  0.6693785E-01  0.2401727E+00
 -0.1970410E+01  0.9905930E+01  0.0000000E+00  0.2334318E+00 -0.1846699E+01  0.6359042E-01  0.2246034E+00
 -0.2931880E+01  0.9665100E+01  0.0000000E+00  0.2158774E+00 -0.1854335E+01  0.6039277E-01  0.2072577E+00
 -0.3865100E+01  0.9331180E+01  0.0000000E+00  0.1974577E+00 -0.1866460E+01  0.5753413E-01  0.1888899E+00
 -0.4761110E+01  0.8907400E+01  0.0000000E+00  0.1777180E+00 -0.1886272E+01  0.5514026E-01  0.1689474E+00
 -0.5611260E+01  0.8397840E+01  0.0000000E+00  0.1572482E+00 -0.1916008E+01  0.5321210E-01  0.1479712E+00
 -0.6407370E+01  0.7807410E+01  0.0000000E+00  0.1363518E+00 -0.1962085E+01  0.5200189E-01  0.1260461E+00
 -0.7141780E+01  0.7141780E+01  0.0000000E+00  0.1158673E+00 -0.2031573E+01  0.5151970E-01  0.1037832E+00
 -0.7807410E+01  0.6407370E+01  0.0000000E+00  0.9623040E-01 -0.2140472E+01  0.5190276E-01  0.8103329E-01
 -0.8397840E+01  0.5611260E+01  0.0000000E+00  0.7858623E-01 -0.2311834E+01  0.5304993E-01  0.5797845E-01
 -0.8907410E+01  0.4761110E+01  0.0000000E+00  0.6527523E-01 -0.2575132E+01  0.5507961E-01  0.3502988E-01
 -0.9331180E+01  0.3865100E+01  0.0000000E+00  0.5915441E-01 -0.2927788E+01  0.5780750E-01  0.1255137E-01
 -0.9665100E+01  0.2931880E+01  0.0000000E+00  0.6197857E-01  0.2992561E+01  0.6129156E-01 -0.9202613E-02
 -0.9905930E+01  0.1970410E+01  0.0000000E+00  0.7213941E-01  0.2705542E+01  0.6538911E-01 -0.3046899E-01
 -0.1005140E+02  0.9899730E+00  0.0000000E+00  0.8636954E-01  0.2515834E+01  0.7000417E-01 -0.5058770E-01
 -0.1010000E+02 -0.8829700E-06  0.0000000E+00  0.1021929E+00  0.2392895E+01  0.7486410E-01 -0.6956122E-01
 -0.1005140E+02 -0.9899740E+00  0.0000000E+00  0.1179624E+00  0.2314999E+01  0.7990602E-01 -0.8677642E-01
 -0.9905930E+01 -0.1970410E+01  0.0000000E+00  0.1334583E+00  0.2261605E+01  0.8503440E-01 -0.1028604E+00
 -0.9665100E+01 -0.2931880E+01  0.0000000E+00  0.1476485E+00  0.2226231E+01  0.8999239E-01 -0.1170532E+00
 -0.9331180E+01 -0.3865100E+01  0.0000000E+00  0.1605144E+00  0.2200891E+01  0.9457842E-01 -0.1296911E+00
 -0.8907400E+01 -0.4761110E+01  0.0000000E+00  0.1711835E+00  0.2184859E+01  0.9863466E-01 -0.1399107E+00
 -0.8397840E+01 -0.5611260E+01  0.0000000E+00  0.1803540E+00  0.2173111E+01  0.1021799E+00 -0.1486164E+00
 -0.7807400E+01 -0.6407370E+01  0.0000000E+00  0.1872079E+00  0.2165807E+01  0.1049334E+00 -0.1550348E+00
 -0.7141780E+01 -0.7141780E+01  0.0000000E+00  0.1922192E+00  0.2160440E+01  0.1068864E+00 -0.1597608E+00
 -0.6407370E+01 -0.7807410E+01  0.0000000E+00  0.1944370E+00  0.2158826E+01  0.1078587E+00 -0.1617785E+00
 -0.5611260E+01 -0.8397850E+01  0.0000000E+00  0.1947903E+00  0.2158384E+01  0.1079830E+00 -0.1621201E+00
 -0.4761110E+01 -0.8907410E+01  0.0000000E+00  0.1926024E+00  0.2160476E+01  0.1071052E+00 -0.1600754E+00
 -0.3865100E+01 -0.9331190E+01  0.0000000E+00  0.1885852E+00  0.2163946E+01  0.1054145E+00 -0.1563719E+00
 -0.2931870E+01 -0.9665100E+01  0.0000000E+00  0.1818392E+00  0.2171615E+01  0.1027970E+00 -0.1499943E+00
 -0.1970410E+01 -0.9905930E+01  0.0000000E+00  0.1732976E+00  0.2181914E+01  0.9943530E-01 -0.1419320E+00
 -0.9899710E+00 -0.1005140E+02  0.0000000E+00  0.1625609E+00  0.2197833E+01  0.9538223E-01 -0.1316369E+00
  0.1204410E-06 -0.1010000E+02  0.0000000E+00  0.1504667E+00  0.2219678E+01  0.9092638E-01 -0.1198858E+00
  0.9899760E+00 -0.1005140E+02  0.0000000E+00  0.1364006E+00  0.2253680E+01  0.8607325E-01 -0.1058136E+00
  0.1970410E+01 -0.9905930E+01  0.0000000E+00  0.1212472E+00  0.2302038E+01  0.8096821E-01 -0.9024990E-01
  0.2931880E+01 -0.9665100E+01  0.0000000E+00  0.1052001E+00  0.2375871E+01  0.7583691E-01 -0.7290976E-01
  0.3865100E+01 -0.9331180E+01  0.0000000E+00  0.8946705E-01  0.2485922E+01  0.7091510E-01 -0.5454723E-01
  0.4761110E+01 -0.8907410E+01  0.0000000E+00  0.7480241E-01  0.2660583E+01  0.6631446E-01 -0.3460914E-01
  0.5611260E+01 -0.8397840E+01  0.0000000E+00  0.6355327E-01  0.2925338E+01  0.6207299E-01 -0.1363683E-01
  0.6407370E+01 -0.7807410E+01  0.0000000E+00  0.5904397E-01 -0.3000809E+01  0.5845981E-01  0.8284990E-02
  0.7141780E+01 -0.7141780E+01  0.0000000E+00  0.6337330E-01 -0.2638664E+01  0.5552609E-01  0.3054554E-01
  0.7807410E+01 -0.6407370E+01  0.0000000E+00  0.7545441E-01 -0.2357317E+01  0.5341418E-01  0.5329440E-01
  0.8397840E+01 -0.5611260E+01  0.0000000E+00  0.9240054E-01 -0.2169114E+01  0.5204489E-01  0.7634912E-01
  0.8907410E+01 -0.4761110E+01  0.0000000E+00  0.1118903E+00 -0.2049783E+01  0.5156799E-01  0.9929842E-01
  0.9331180E+01 -0.3865100E+01  0.0000000E+00  0.1323492E+00 -0.1973174E+01  0.5182885E-01  0.1217788E+00
  0.9665100E+01 -0.2931870E+01  0.0000000E+00  0.1529774E+00 -0.1923963E+01  0.5291037E-01  0.1435360E+00
  0.9905930E+01 -0.1970410E+01  0.0000000E+00  0.1736376E+00 -0.1891101E+01  0.5467080E-01  0.1648063E+00
  0.1005140E+02 -0.9899690E+00  0.0000000E+00  0.1935313E+00 -0.1870068E+01  0.5705768E-01  0.1849291E+00
  0.1010000E+02  0.0000000E+00 -0.2568960E-01  0.2123759E+00 -0.1856069E+01  0.5976662E-01  0.2037927E+00
  0.1005140E+02  0.9899730E+00 -0.2568960E-01  0.2297599E+00 -0.1847934E+01  0.6286322E-01  0.2209928E+00
  0.9905930E+01  0.1970410E+01 -0.2568960E-01  0.2460370E+00 -0.1843174E+01  0.6618936E-01  0.2369666E+00
  0.9665100E+01  0.2931880E+01 -0.2568960E-01  0.2607079E+00 -0.1840779E+01  0.6953474E-01  0.2512639E+00
  0.9331180E+01  0.3865100E+01 -0.2568960E-01  0.2737429E+00 -0.1839578E+01  0.7269430E-01  0.2639142E+00
  0.8907400E+01  0.4761110E+01 -0.2568960E-01  0.2843403E+00 -0.1839755E+01  0.7555697E-01  0.2741177E+00
  0.8397840E+01  0.5611260E+01 -0.2568960E-01  0.2932767E+00 -0.1840331E+01  0.7809459E-01  0.2826879E+00
  0.7807410E+01  0.6407370E+01 -0.2568960E-01  0.3001310E+00 -0.1841003E+01  0.8011406E-01  0.2892410E+00
  0.7141780E+01  0.7141780E+01 -0.2568960E-01  0.3050823E+00 -0.1841360E+01  0.8154090E-01  0.2939835E+00
  0.6407370E+01  0.7807410E+01 -0.2568960E-01  0.3072007E+00 -0.1841859E+01  0.8225463E-01  0.2959839E+00
  0.5611260E+01  0.8397840E+01 -0.2568960E-01  0.3074116E+00 -0.1841915E+01  0.8232784E-01  0.2961824E+00
  0.4761110E+01  0.8907410E+01 -0.2568960E-01  0.3054115E+00 -0.1841599E+01  0.8169896E-01  0.2942812E+00
  0.3865100E+01  0.9331180E+01 -0.2568960E-01  0.3015284E+00 -0.1840915E+01  0.8046164E-01  0.2905948E+00
  0.2931870E+01  0.9665100E+01 -0.2568960E-01  0.2948598E+00 -0.1840491E+01  0.7856154E-01  0.2842013E+00
  0.1970410E+01  0.9905930E+01 -0.2568960E-01  0.2863130E+00 -0.1839906E+01  0.7612294E-01  0.2760080E+00
  0.9899730E+00  0.1005140E+02 -0.2568960E-01  0.2757532E+00 -0.1839673E+01  0.7325342E-01  0.2658454E+00
 -0.4414850E-06  0.1010000E+02 -0.2568960E-01  0.2636178E+00 -0.1840187E+01  0.7016022E-01  0.2541100E+00
 -0.9899740E+00  0.1005140E+02 -0.2568960E-01  0.2491741E+00 -0.1842583E+01  0.6689163E-01  0.2400276E+00
 -0.1970410E+01  0.9905930E+01 -0.2568960E-01  0.2331924E+00 -0.1846807E+01  0.6354938E-01  0.2243662E+00
 -0.2931880E+01  0.9665100E+01 -0.2568960E-01  0.2157426E+00 -0.1854308E+01  0.6034933E-01  0.2071300E+00
 -0.3865100E+01  0.9331180E+01 -0.2568960E-01  0.1973424E+00 -0.1866407E+01  0.5749061E-01  0.1887825E+00
 -0.4761110E+01  0.8907400E+01 -0.2568960E-01  0.1776061E+00 -0.1886237E+01  0.5509965E-01  0.1688430E+00
 -0.5611260E+01  0.8397840E+01 -0.2568960E-01  0.1571044E+00 -0.1916195E+01  0.5319117E-01  0.1478259E+00
 -0.6407370E+01  0.7807410E+01 -0.2568960E-01  0.1362607E+00 -0.1962047E+01  0.5196229E-01  0.1259639E+00
 -0.7141780E+01  0.7141780E+01 -0.2568960E-01  0.1157892E+00 -0.2031500E+01  0.5147739E-01  0.1037170E+00
 -0.7807410E+01  0.6407370E+01 -0.2568960E-01  0.9616280E-01 -0.2140430E+01  0.5186289E-01  0.8097855E-01
 -0.8397840E+01  0.5611260E+01 -0.2568960E-01  0.7854726E-01 -0.2311991E+01  0.5303274E-01  0.5794136E-01
 -0.8907410E+01  0.4761110E+01 -0.2568960E-01  0.6522319E-01 -0.2575196E+01  0.5503793E-01  0.3499845E-01
 -0.9331180E+01  0.3865100E+01 -0.2568960E-01  0.5910482E-01 -0.2927985E+01  0.5776152E-01  0.1252943E-01
 -0.9665100E+01  0.2931880E+01 -0.2568960E-01  0.6193414E-01  0.2992386E+01  0.6124600E-01 -0.9206748E-02
 -0.9905930E+01  0.1970410E+01 -0.2568960E-01  0.7207949E-01  0.2706213E+01  0.6535520E-01 -0.3039986E-01
 -0.1005140E+02  0.9899730E+00 -0.2568960E-01  0.8631923E-01  0.2515654E+01  0.6995428E-01 -0.5057082E-01
 -0.1010000E+02 -0.8829700E-06 -0.2568960E-01  0.1021415E+00  0.2392670E+01  0.7481075E-01 -0.6954303E-01
 -0.1005140E+02 -0.9899740E+00 -0.2568960E-01  0.1178956E+00  0.2314875E+01  0.7985000E-01 -0.8673730E-01
 -0.9905930E+01 -0.1970410E+01 -0.2568960E-01  0.1332984E+00  0.2261983E+01  0.8497136E-01 -0.1027051E+00
 -0.9665100E+01 -0.2931880E+01 -0.2568960E-01  0.1475680E+00  0.2226132E+01  0.8993168E-01 -0.1169983E+00
 -0.9331180E+01 -0.3865100E+01 -0.2568960E-01  0.1604392E+00  0.2200755E+01  0.9451659E-01 -0.1296432E+00
 -0.8907400E+01 -0.4761110E+01 -0.2568960E-01  0.1710891E+00  0.2184776E+01  0.9856870E-01 -0.1398417E+00
 -0.8397840E+01 -0.5611260E+01 -0.2568960E-01  0.1801315E+00  0.2173361E+01  0.1020908E+00 -0.1484076E+00
 -0.7807400E+01 -0.6407370E+01 -0.2568960E-01  0.1871054E+00  0.2165733E+01  0.1048644E+00 -0.1549577E+00
 -0.7141780E+01 -0.7141780E+01 -0.2568960E-01  0.1921298E+00  0.2160333E+01  0.1068195E+00 -0.1596980E+00
 -0.6407370E+01 -0.7807410E+01 -0.2568960E-01  0.1943301E+00  0.2158755E+01  0.1077878E+00 -0.1616972E+00
 -0.5611260E+01 -0.8397850E+01 -0.2568960E-01  0.1945488E+00  0.2158605E+01  0.1078849E+00 -0.1618953E+00
 -0.4761110E+01 -0.8907410E+01 -0.2568960E-01  0.1924965E+00  0.2160404E+01  0.1070349E+00 -0.1599951E+00
 -0.3865100E+01 -0.9331190E+01 -0.2568960E-01  0.1884975E+00  0.2163834E+01  0.1053480E+00 -0.1563109E+00
 -0.2931870E+01 -0.9665100E+01 -0.2568960E-01  0.1817398E+00  0.2171538E+01  0.1027293E+00 -0.1499202E+00
 -0.1970410E+01 -0.9905930E+01 -0.2568960E-01  0.1730842E+00  0.2182180E+01  0.9935047E-01 -0.1417308E+00
 -0.9899710E+00 -0.1005140E+02 -0.2568960E-01  0.1624708E+00  0.2197746E+01  0.9531789E-01 -0.1315722E+00
  0.1204410E-06 -0.1010000E+02 -0.2568960E-01  0.1503960E+00  0.2219531E+01  0.9086606E-01 -0.1198429E+00
  0.9899760E+00 -0.1005140E+02 -0.2568960E-01  0.1363261E+00  0.2253571E+01  0.8601466E-01 -0.1057653E+00
  0.1970410E+01 -0.9905930E+01 -0.2568960E-01  0.1211048E+00  0.2302462E+01  0.8091128E-01 -0.9010956E-01
  0.2931880E+01 -0.9665100E+01 -0.2568960E-01  0.1051398E+00  0.2375732E+01  0.7578328E-01 -0.7287845E-01
  0.3865100E+01 -0.9331180E+01 -0.2568960E-01  0.8941962E-01  0.2485664E+01  0.7086344E-01 -0.5453660E-01
  0.4761110E+01 -0.8907410E+01 -0.2568960E-01  0.7475641E-01  0.2660381E+01  0.6626669E-01 -0.3460125E-01
  0.5611260E+01 -0.8397840E+01 -0.2568960E-01  0.6351442E-01  0.2925993E+01  0.6204395E-01 -0.1358784E-01
  0.6407370E+01 -0.7807410E+01 -0.2568960E-01  0.5899861E-01 -0.3000942E+01  0.5841599E-01  0.8270882E-02
  0.7141780E+01 -0.7141780E+01 -0.2568960E-01  0.6331918E-01 -0.2638746E+01  0.5548117E-01  0.3051490E-01
  0.7807410E+01 -0.6407370E+01 -0.2568960E-01  0.7539622E-01 -0.2357327E+01  0.5337349E-01  0.5325279E-01
  0.8397840E+01 -0.5611260E+01 -0.2568960E-01  0.9234247E-01 -0.2169329E+01  0.5202862E-01  0.7628993E-01
  0.8907410E+01 -0.4761110E+01 -0.2568960E-01  0.1118146E+00 -0.2049736E+01  0.5152848E-01  0.9923364E-01
  0.9331180E+01 -0.3865100E+01 -0.2568960E-01  0.1322639E+00 -0.1973101E+01  0.5178668E-01  0.1217041E+00
  0.9665100E+01 -0.2931870E+01 -0.2568960E-01  0.1528773E+00 -0.1923925E+01  0.5287030E-01  0.1434441E+00
  0.9905930E+01 -0.1970410E+01 -0.2568960E-01  0.1734726E+00 -0.1891270E+01  0.5464674E-01  0.1646405E+00
  0.1005140E+02 -0.9899690E+00 -0.2568960E-01  0.1934111E+00 -0.1870035E+01  0.5701620E-01  0.1848162E+00
  0.1010000E+02  0.0000000E+00 -0.1027320E+00  0.2119765E+00 -0.1855987E+01  0.5963752E-01  0.2034144E+00
  0.1005140E+02  0.9899730E+00 -0.1027320E+00  0.2292927E+00 -0.1847919E+01  0.6273203E-01  0.2205444E+00
  0.9905930E+01  0.1970410E+01 -0.1027320E+00  0.2454807E+00 -0.1843235E+01  0.6605411E-01  0.2364268E+00
  0.9665100E+01  0.2931880E+01 -0.1027320E+00  0.2601863E+00 -0.1840777E+01  0.6939491E-01  0.2507613E+00
  0.9331180E+01  0.3865100E+01 -0.1027320E+00  0.2732398E+00 -0.1839545E+01  0.7255201E-01  0.2634316E+00
  0.8907400E+01  0.4761110E+01 -0.1027320E+00  0.2837684E+00 -0.1839759E+01  0.7540612E-01  0.2735661E+00
  0.8397840E+01  0.5611260E+01 -0.1027320E+00  0.2926102E+00 -0.1840384E+01  0.7793192E-01  0.2820414E+00
  0.7807410E+01  0.6407370E+01 -0.1027320E+00  0.2995306E+00 -0.1841014E+01  0.7995709E-01  0.2886615E+00
  0.7141780E+01  0.7141780E+01 -0.1027320E+00  0.3045245E+00 -0.1841352E+01  0.8138929E-01  0.2934467E+00
  0.6407370E+01  0.7807410E+01 -0.1027320E+00  0.3065856E+00 -0.1841872E+01  0.8209375E-01  0.2953901E+00
  0.5611260E+01  0.8397840E+01 -0.1027320E+00  0.3067127E+00 -0.1841966E+01  0.8215555E-01  0.2955049E+00
  0.4761110E+01  0.8907410E+01 -0.1027320E+00  0.3047991E+00 -0.1841611E+01  0.8153884E-01  0.2936902E+00
  0.3865100E+01  0.9331180E+01 -0.1027320E+00  0.3009776E+00 -0.1840903E+01  0.8031119E-01  0.2900649E+00
  0.2931870E+01  0.9665100E+01 -0.1027320E+00  0.2942697E+00 -0.1840501E+01  0.7840722E-01  0.2836317E+00
  0.1970410E+01  0.9905930E+01 -0.1027320E+00  0.2856636E+00 -0.1839959E+01  0.7596486E-01  0.2753780E+00
  0.9899730E+00  0.1005140E+02 -0.1027320E+00  0.2751976E+00 -0.1839674E+01  0.7310615E-01  0.2653097E+00
 -0.4414850E-06  0.1010000E+02 -0.1027320E+00  0.2631321E+00 -0.1840146E+01  0.7002068E-01  0.2536446E+00
 -0.9899740E+00  0.1005140E+02 -0.1027320E+00  0.2486747E+00 -0.1842577E+01  0.6675588E-01  0.2395469E+00
 -0.1970410E+01  0.9905930E+01 -0.1027320E+00  0.2326663E+00 -0.1846871E+01  0.6342034E-01  0.2238559E+00
 -0.2931880E+01  0.9665100E+01 -0.1027320E+00  0.2153027E+00 -0.1854286E+01  0.6022192E-01  0.2067089E+00
 -0.3865100E+01  0.9331180E+01 -0.1027320E+00  0.1969681E+00 -0.1866311E+01  0.5736353E-01  0.1884300E+00
 -0.4761110E+01  0.8907400E+01 -0.1027320E+00  0.1772463E+00 -0.1886199E+01  0.5498170E-01  0.1685030E+00
 -0.5611260E+01  0.8397840E+01 -0.1027320E+00  0.1567561E+00 -0.1916282E+01  0.5308606E-01  0.1474936E+00
 -0.6407370E+01  0.7807410E+01 -0.1027320E+00  0.1359742E+00 -0.1962003E+01  0.5184754E-01  0.1257013E+00
 -0.7141780E+01  0.7141780E+01 -0.1027320E+00  0.1155491E+00 -0.2031339E+01  0.5135402E-01  0.1035102E+00
 -0.7807410E+01  0.6407370E+01 -0.1027320E+00  0.9595921E-01 -0.2140364E+01  0.5174772E-01  0.8081053E-01
 -0.8397840E+01  0.5611260E+01 -0.1027320E+00  0.7838593E-01 -0.2312068E+01  0.5292825E-01  0.5781830E-01
 -0.8907410E+01  0.4761110E+01 -0.1027320E+00  0.6507525E-01 -0.2575301E+01  0.5491675E-01  0.3491330E-01
 -0.9331180E+01  0.3865100E+01 -0.1027320E+00  0.5896241E-01 -0.2928349E+01  0.5762689E-01  0.1247830E-01
 -0.9665100E+01  0.2931880E+01 -0.1027320E+00  0.6180103E-01  0.2992192E+01  0.6111259E-01 -0.9198816E-02
 -0.9905930E+01  0.1970410E+01 -0.1027320E+00  0.7192466E-01  0.2706478E+01  0.6522285E-01 -0.3031726E-01
 -0.1005140E+02  0.9899730E+00 -0.1027320E+00  0.8615129E-01  0.2515432E+01  0.6980695E-01 -0.5048797E-01
 -0.1010000E+02 -0.8829700E-06 -0.1027320E+00  0.1019642E+00  0.2392253E+01  0.7465197E-01 -0.6945346E-01
 -0.1005140E+02 -0.9899740E+00 -0.1027320E+00  0.1176658E+00  0.2314752E+01  0.7968368E-01 -0.8657800E-01
 -0.9905930E+01 -0.1970410E+01 -0.1027320E+00  0.1329921E+00  0.2262162E+01  0.8479438E-01 -0.1024539E+00
 -0.9665100E+01 -0.2931880E+01 -0.1027320E+00  0.1472868E+00  0.2226041E+01  0.8974968E-01 -0.1167836E+00
 -0.9331180E+01 -0.3865100E+01 -0.1027320E+00  0.1601733E+00  0.2200536E+01  0.9433161E-01 -0.1294490E+00
 -0.8907400E+01 -0.4761110E+01 -0.1027320E+00  0.1707599E+00  0.2184712E+01  0.9837013E-01 -0.1395789E+00
 -0.8397840E+01 -0.5611260E+01 -0.1027320E+00  0.1797142E+00  0.2173499E+01  0.1018748E+00 -0.1480498E+00
 -0.7807400E+01 -0.6407370E+01 -0.1027320E+00  0.1867481E+00  0.2165683E+01  0.1046564E+00 -0.1546671E+00
 -0.7141780E+01 -0.7141780E+01 -0.1027320E+00  0.1918124E+00  0.2160177E+01  0.1066182E+00 -0.1594508E+00
 -0.6407370E+01 -0.7807410E+01 -0.1027320E+00  0.1939577E+00  0.2158711E+01  0.1075742E+00 -0.1613921E+00
 -0.5611260E+01 -0.8397850E+01 -0.1027320E+00  0.1940979E+00  0.2158734E+01  0.1076557E+00 -0.1615062E+00
 -0.4761110E+01 -0.8907410E+01 -0.1027320E+00  0.1921276E+00  0.2160359E+01  0.1068226E+00 -0.1596933E+00
 -0.3865100E+01 -0.9331190E+01 -0.1027320E+00  0.1881862E+00  0.2163673E+01  0.1051488E+00 -0.1560697E+00
 -0.2931870E+01 -0.9665100E+01 -0.1027320E+00  0.1813930E+00  0.2171483E+01  0.1025250E+00 -0.1496397E+00
 -0.1970410E+01 -0.9905930E+01 -0.1027320E+00  0.1726837E+00  0.2182322E+01  0.9914068E-01 -0.1413888E+00
 -0.9899710E+00 -0.1005140E+02 -0.1027320E+00  0.1621579E+00  0.2197675E+01  0.9512496E-01 -0.1313256E+00
  0.1204410E-06 -0.1010000E+02 -0.1027320E+00  0.1501461E+00  0.2219286E+01  0.9068581E-01 -0.1196660E+00
  0.9899760E+00 -0.1005140E+02 -0.1027320E+00  0.1360665E+00  0.2253463E+01  0.8583950E-01 -0.1055731E+00
  0.1970410E+01 -0.9905930E+01 -0.1027320E+00  0.1208277E+00  0.2302655E+01  0.8074358E-01 -0.8988781E-01
  0.2931880E+01 -0.9665100E+01 -0.1027320E+00  0.1049333E+00  0.2375588E+01  0.7562393E-01 -0.7274621E-01
  0.3865100E+01 -0.9331180E+01 -0.1027320E+00  0.8925911E-01  0.2485183E+01  0.7071003E-01 -0.5447274E-01
  0.4761110E+01 -0.8907410E+01 -0.1027320E+00  0.7460772E-01  0.2660117E+01  0.6612576E-01 -0.3454990E-01
  0.5611260E+01 -0.8397840E+01 -0.1027320E+00  0.6338313E-01  0.2926241E+01  0.6191907E-01 -0.1354438E-01
  0.6407370E+01 -0.7807410E+01 -0.1027320E+00  0.5886792E-01 -0.3001075E+01  0.5828769E-01  0.8244785E-02
  0.7141780E+01 -0.7141780E+01 -0.1027320E+00  0.6316472E-01 -0.2638880E+01  0.5534992E-01  0.3043300E-01
  0.7807410E+01 -0.6407370E+01 -0.1027320E+00  0.7522729E-01 -0.2357353E+01  0.5325530E-01  0.5313208E-01
  0.8397840E+01 -0.5611260E+01 -0.1027320E+00  0.9214808E-01 -0.2169425E+01  0.5192637E-01  0.7612438E-01
  0.8907410E+01 -0.4761110E+01 -0.1027320E+00  0.1115812E+00 -0.2049670E+01  0.5141438E-01  0.9902994E-01
  0.9331180E+01 -0.3865100E+01 -0.1027320E+00  0.1319973E+00 -0.1972948E+01  0.5166361E-01  0.1214667E+00
  0.9665100E+01 -0.2931870E+01 -0.1027320E+00  0.1525588E+00 -0.1923884E+01  0.5275437E-01  0.1431474E+00
  0.9905930E+01 -0.1970410E+01 -0.1027320E+00  0.1730860E+00 -0.1891352E+01  0.5453829E-01  0.1642691E+00
  0.1005140E+02 -0.9899690E+00 -0.1027320E+00  0.1930202E+00 -0.1870005E+01  0.5689548E-01  0.1844444E+00
  0.1010000E+02  0.0000000E+00 -0.2310450E+00  0.2112730E+00 -0.1855950E+01  0.5943221E-01  0.2027414E+00
  0.1005140E+02  0.9899730E+00 -0.2310450E+00  0.2285121E+00 -0.1847921E+01  0.6251886E-01  0.2197934E+00
  0.9905930E+01  0.1970410E+01 -0.2310450E+00  0.2446671E+00 -0.1843222E+01  0.6583217E-01  0.2356440E+00
  0.9665100E+01  0.2931880E+01 -0.2310450E+00  0.2593087E+00 -0.1840788E+01  0.6916379E-01  0.2499148E+00
  0.9331180E+01  0.3865100E+01 -0.2310450E+00  0.2723429E+00 -0.1839541E+01  0.7231275E-01  0.2625672E+00
  0.8907400E+01  0.4761110E+01 -0.2310450E+00  0.2828089E+00 -0.1839774E+01  0.7515546E-01  0.2726400E+00
  0.8397840E+01  0.5611260E+01 -0.2310450E+00  0.2916466E+00 -0.1840392E+01  0.7767762E-01  0.2811120E+00
  0.7807410E+01  0.6407370E+01 -0.2310450E+00  0.2985218E+00 -0.1841036E+01  0.7969410E-01  0.2876875E+00
  0.7141780E+01  0.7141780E+01 -0.2310450E+00  0.3035289E+00 -0.1841362E+01  0.8112624E-01  0.2924865E+00
  0.6407370E+01  0.7807410E+01 -0.2310450E+00  0.3055522E+00 -0.1841895E+01  0.8182386E-01  0.2943926E+00
  0.5611260E+01  0.8397840E+01 -0.2310450E+00  0.3057046E+00 -0.1841979E+01  0.8188953E-01  0.2945325E+00
  0.4761110E+01  0.8907410E+01 -0.2310450E+00  0.3037717E+00 -0.1841633E+01  0.8127043E-01  0.2926984E+00
  0.3865100E+01  0.9331180E+01 -0.2310450E+00  0.2999927E+00 -0.1840912E+01  0.8005105E-01  0.2891150E+00
  0.2931870E+01  0.9665100E+01 -0.2310450E+00  0.2932796E+00 -0.1840521E+01  0.7814903E-01  0.2826759E+00
  0.1970410E+01  0.9905930E+01 -0.2310450E+00  0.2847217E+00 -0.1839964E+01  0.7571576E-01  0.2744696E+00
  0.9899730E+00  0.1005140E+02 -0.2310450E+00  0.2742660E+00 -0.1839688E+01  0.7286234E-01  0.2644105E+00
 -0.4414850E-06  0.1010000E+02 -0.2310450E+00  0.2622673E+00 -0.1840136E+01  0.6978801E-01  0.2528117E+00
 -0.9899740E+00  0.1005140E+02 -0.2310450E+00  0.2478357E+00 -0.1842586E+01  0.6653286E-01  0.2387382E+00
 -0.1970410E+01  0.9905930E+01 -0.2310450E+00  0.2318944E+00 -0.1846850E+01  0.6320544E-01  0.2231145E+00
 -0.2931880E+01  0.9665100E+01 -0.2310450E+00  0.2145679E+00 -0.1854285E+01  0.6001617E-01  0.2060035E+00
 -0.3865100E+01  0.9331180E+01 -0.2310450E+00  0.1963121E+00 -0.1866266E+01  0.5716403E-01  0.1878050E+00
 -0.4761110E+01  0.8907400E+01 -0.2310450E+00  0.1766440E+00 -0.1886187E+01  0.5479280E-01  0.1679311E+00
 -0.5611260E+01  0.8397840E+01 -0.2310450E+00  0.1562247E+00 -0.1916229E+01  0.5289833E-01  0.1469964E+00
 -0.6407370E+01  0.7807410E+01 -0.2310450E+00  0.1355000E+00 -0.1961999E+01  0.5166623E-01  0.1252631E+00
 -0.7141780E+01  0.7141780E+01 -0.2310450E+00  0.1151483E+00 -0.2031267E+01  0.5116848E-01  0.1031548E+00
 -0.7807410E+01  0.6407370E+01 -0.2310450E+00  0.9562442E-01 -0.2140351E+01  0.5156617E-01  0.8052926E-01
 -0.8397840E+01  0.5611260E+01 -0.2310450E+00  0.7810245E-01 -0.2312092E+01  0.5273824E-01  0.5760791E-01
 -0.8907410E+01  0.4761110E+01 -0.2310450E+00  0.6483939E-01 -0.2575505E+01  0.5472484E-01  0.3477554E-01
 -0.9331180E+01  0.3865100E+01 -0.2310450E+00  0.5874685E-01 -0.2928721E+01  0.5742084E-01  0.1241129E-01
 -0.9665100E+01  0.2931880E+01 -0.2310450E+00  0.6158800E-01  0.2991937E+01  0.6089960E-01 -0.9182634E-02
 -0.9905930E+01  0.1970410E+01 -0.2310450E+00  0.7168806E-01  0.2706040E+01  0.6499506E-01 -0.3024601E-01
 -0.1005140E+02  0.9899730E+00 -0.2310450E+00  0.8587264E-01  0.2515175E+01  0.6956825E-01 -0.5034251E-01
 -0.1010000E+02 -0.8829700E-06 -0.2310450E+00  0.1016448E+00  0.2391927E+01  0.7439555E-01 -0.6926011E-01
 -0.1005140E+02 -0.9899740E+00 -0.2310450E+00  0.1172816E+00  0.2314615E+01  0.7941172E-01 -0.8630618E-01
 -0.9905930E+01 -0.1970410E+01 -0.2310450E+00  0.1325768E+00  0.2261955E+01  0.8450851E-01 -0.1021515E+00
 -0.9665100E+01 -0.2931880E+01 -0.2310450E+00  0.1468127E+00  0.2225935E+01  0.8944844E-01 -0.1164171E+00
 -0.9331180E+01 -0.3865100E+01 -0.2310450E+00  0.1596778E+00  0.2200369E+01  0.9401816E-01 -0.1290643E+00
 -0.8907400E+01 -0.4761110E+01 -0.2310450E+00  0.1702049E+00  0.2184638E+01  0.9804010E-01 -0.1391325E+00
 -0.8397840E+01 -0.5611260E+01 -0.2310450E+00  0.1791535E+00  0.2173376E+01  0.1015388E+00 -0.1476003E+00
 -0.7807400E+01 -0.6407370E+01 -0.2310450E+00  0.1861437E+00  0.2165621E+01  0.1043081E+00 -0.1541730E+00
 -0.7141780E+01 -0.7141780E+01 -0.2310450E+00  0.1912187E+00  0.2160058E+01  0.1062693E+00 -0.1589699E+00
 -0.6407370E+01 -0.7807410E+01 -0.2310450E+00  0.1933284E+00  0.2158655E+01  0.1072161E+00 -0.1608744E+00
 -0.5611260E+01 -0.8397850E+01 -0.2310450E+00  0.1934921E+00  0.2158630E+01  0.1073028E+00 -0.1610133E+00
 -0.4761110E+01 -0.8907410E+01 -0.2310450E+00  0.1915039E+00  0.2160302E+01  0.1064666E+00 -0.1591811E+00
 -0.3865100E+01 -0.9331190E+01 -0.2310450E+00  0.1876035E+00  0.2163550E+01  0.1048041E+00 -0.1555995E+00
 -0.2931870E+01 -0.9665100E+01 -0.2310450E+00  0.1808064E+00  0.2171416E+01  0.1021835E+00 -0.1491627E+00
 -0.1970410E+01 -0.9905930E+01 -0.2310450E+00  0.1721450E+00  0.2182189E+01  0.9881268E-01 -0.1409609E+00
 -0.9899710E+00 -0.1005140E+02 -0.2310450E+00  0.1616304E+00  0.2197592E+01  0.9480476E-01 -0.1309062E+00
  0.1204410E-06 -0.1010000E+02 -0.2310450E+00  0.1496814E+00  0.2219100E+01  0.9038293E-01 -0.1193124E+00
  0.9899760E+00 -0.1005140E+02 -0.2310450E+00  0.1356288E+00  0.2253341E+01  0.8555052E-01 -0.1052440E+00
  0.1970410E+01 -0.9905930E+01 -0.2310450E+00  0.1204496E+00  0.2302419E+01  0.8046968E-01 -0.8962549E-01
  0.2931880E+01 -0.9665100E+01 -0.2310450E+00  0.1045898E+00  0.2375427E+01  0.7536468E-01 -0.7252021E-01
  0.3865100E+01 -0.9331180E+01 -0.2310450E+00  0.8897629E-01  0.2484800E+01  0.7046520E-01 -0.5432712E-01
  0.4761110E+01 -0.8907410E+01 -0.2310450E+00  0.7436351E-01  0.2659803E+01  0.6589851E-01 -0.3445749E-01
  0.5611260E+01 -0.8397840E+01 -0.2310450E+00  0.6316645E-01  0.2925777E+01  0.6170112E-01 -0.1352673E-01
  0.6407370E+01 -0.7807410E+01 -0.2310450E+00  0.5866025E-01 -0.3001287E+01  0.5808382E-01  0.8203360E-02
  0.7141780E+01 -0.7141780E+01 -0.2310450E+00  0.6293054E-01 -0.2639083E+01  0.5515085E-01  0.3030902E-01
  0.7807410E+01 -0.6407370E+01 -0.2310450E+00  0.7495522E-01 -0.2357467E+01  0.5306873E-01  0.5293387E-01
  0.8397840E+01 -0.5611260E+01 -0.2310450E+00  0.9182051E-01 -0.2169399E+01  0.5173977E-01  0.7585514E-01
  0.8907410E+01 -0.4761110E+01 -0.2310450E+00  0.1111951E+00 -0.2049649E+01  0.5123435E-01  0.9868832E-01
  0.9331180E+01 -0.3865100E+01 -0.2310450E+00  0.1315450E+00 -0.1972876E+01  0.5147789E-01  0.1210542E+00
  0.9665100E+01 -0.2931870E+01 -0.2310450E+00  0.1520299E+00 -0.1923877E+01  0.5257037E-01  0.1426515E+00
  0.9905930E+01 -0.1970410E+01 -0.2310450E+00  0.1725031E+00 -0.1891304E+01  0.5434684E-01  0.1637185E+00
  0.1005140E+02 -0.9899690E+00 -0.2310450E+00  0.1923659E+00 -0.1869998E+01  0.5670122E-01  0.1838195E+00
  0.1010000E+02  0.0000000E+00 -0.4105000E+00  0.2102648E+00 -0.1855879E+01  0.5913411E-01  0.2017782E+00
  0.1005140E+02  0.9899730E+00 -0.4105000E+00  0.2274574E+00 -0.1847797E+01  0.6220312E-01  0.2187867E+00
  0.9905930E+01  0.1970410E+01 -0.4105000E+00  0.2435213E+00 -0.1843140E+01  0.6550466E-01  0.2345459E+00
  0.9665100E+01  0.2931880E+01 -0.4105000E+00  0.2581296E+00 -0.1840687E+01  0.6882418E-01  0.2487853E+00
  0.9331180E+01  0.3865100E+01 -0.4105000E+00  0.2710514E+00 -0.1839486E+01  0.7195545E-01  0.2613260E+00
  0.8907400E+01  0.4761110E+01 -0.4105000E+00  0.2815196E+00 -0.1839684E+01  0.7478835E-01  0.2714037E+00
  0.8397840E+01  0.5611260E+01 -0.4105000E+00  0.2902876E+00 -0.1840328E+01  0.7729780E-01  0.2798070E+00
  0.7807410E+01  0.6407370E+01 -0.4105000E+00  0.2971680E+00 -0.1840958E+01  0.7931047E-01  0.2863891E+00
  0.7141780E+01  0.7141780E+01 -0.4105000E+00  0.3020935E+00 -0.1841313E+01  0.8072837E-01  0.2911073E+00
  0.6407370E+01  0.7807410E+01 -0.4105000E+00  0.3041661E+00 -0.1841819E+01  0.8143035E-01  0.2930634E+00
  0.5611260E+01  0.8397840E+01 -0.4105000E+00  0.3042811E+00 -0.1841921E+01  0.8149110E-01  0.2931658E+00
  0.4761110E+01  0.8907410E+01 -0.4105000E+00  0.3023926E+00 -0.1841556E+01  0.8087893E-01  0.2913758E+00
  0.3865100E+01  0.9331180E+01 -0.4105000E+00  0.2985734E+00 -0.1840863E+01  0.7965820E-01  0.2877510E+00
  0.2931870E+01  0.9665100E+01 -0.4105000E+00  0.2919489E+00 -0.1840441E+01  0.7777195E-01  0.2813995E+00
  0.1970410E+01  0.9905930E+01 -0.4105000E+00  0.2833944E+00 -0.1839898E+01  0.7534470E-01  0.2731951E+00
  0.9899730E+00  0.1005140E+02 -0.4105000E+00  0.2730137E+00 -0.1839592E+01  0.7250446E-01  0.2632101E+00
 -0.4414850E-06  0.1010000E+02 -0.4105000E+00  0.2610227E+00 -0.1840079E+01  0.6944239E-01  0.2516160E+00
 -0.9899740E+00  0.1005140E+02 -0.4105000E+00  0.2467064E+00 -0.1842478E+01  0.6620404E-01  0.2376575E+00
 -0.1970410E+01  0.9905930E+01 -0.4105000E+00  0.2308059E+00 -0.1846764E+01  0.6288948E-01  0.2220727E+00
 -0.2931880E+01  0.9665100E+01 -0.4105000E+00  0.2135734E+00 -0.1854152E+01  0.5971067E-01  0.2050567E+00
 -0.3865100E+01  0.9331180E+01 -0.4105000E+00  0.1953729E+00 -0.1866190E+01  0.5687630E-01  0.1869108E+00
 -0.4761110E+01  0.8907400E+01 -0.4105000E+00  0.1758251E+00 -0.1886022E+01  0.5451116E-01  0.1671616E+00
 -0.5611260E+01  0.8397840E+01 -0.4105000E+00  0.1554776E+00 -0.1916105E+01  0.5262715E-01  0.1462999E+00
 -0.6407370E+01  0.7807410E+01 -0.4105000E+00  0.1348464E+00 -0.1961819E+01  0.5139452E-01  0.1246682E+00
 -0.7141780E+01  0.7141780E+01 -0.4105000E+00  0.1145829E+00 -0.2031176E+01  0.5090779E-01  0.1026530E+00