 VARIABLES="X" "Y" "Z" "abs(eta) (m)" "angle(phi) (rad)" "PRE1" "PRE2"
ZONE N=   3200 ,E =    3136 ,F=FEPOINT,ET=QUADRILATERAL
  0.1100000E+02  0.0000000E+00  0.0000000E+00  0.3331656E+00 -0.1801490E+01  0.7617930E-01  0.3243394E+00
  0.1094700E+02  0.1078190E+01  0.0000000E+00  0.3209575E+00 -0.1800595E+01  0.7310823E-01  0.3125203E+00
  0.1078860E+02  0.2145990E+01  0.0000000E+00  0.3066354E+00 -0.1800389E+01  0.6978440E-01  0.2985890E+00
  0.1052630E+02  0.3193130E+01  0.0000000E+00  0.2895662E+00 -0.1802123E+01  0.6638861E-01  0.2818530E+00
  0.1016270E+02  0.4209520E+01  0.0000000E+00  0.2709498E+00 -0.1806146E+01  0.6318083E-01  0.2634805E+00
  0.9701130E+01  0.5185360E+01  0.0000000E+00  0.2511877E+00 -0.1813087E+01  0.6026661E-01  0.2438507E+00
  0.9146170E+01  0.6111270E+01  0.0000000E+00  0.2299490E+00 -0.1824816E+01  0.5778550E-01  0.2225700E+00
  0.8503110E+01  0.6978330E+01  0.0000000E+00  0.2071626E+00 -0.1844710E+01  0.5603767E-01  0.1994396E+00
  0.7778170E+01  0.7778170E+01  0.0000000E+00  0.1838907E+00 -0.1875094E+01  0.5509795E-01  0.1754423E+00
  0.6978330E+01  0.8503110E+01  0.0000000E+00  0.1604997E+00 -0.1920332E+01  0.5496494E-01  0.1507946E+00
  0.6111270E+01  0.9146170E+01  0.0000000E+00  0.1371970E+00 -0.1989457E+01  0.5577563E-01  0.1253479E+00
  0.5185360E+01  0.9701130E+01  0.0000000E+00  0.1149973E+00 -0.2096938E+01  0.5775171E-01  0.9944401E-01
  0.4209520E+01  0.1016270E+02  0.0000000E+00  0.9550267E-01 -0.2259911E+01  0.6072578E-01  0.7370983E-01
  0.3193130E+01  0.1052630E+02  0.0000000E+00  0.8055383E-01 -0.2500991E+01  0.6458294E-01  0.4814523E-01
  0.2145990E+01  0.1078860E+02  0.0000000E+00  0.7302654E-01 -0.2823418E+01  0.6936119E-01  0.2284512E-01
  0.1078190E+01  0.1094700E+02  0.0000000E+00  0.7505631E-01  0.3123029E+01  0.7504337E-01 -0.1393284E-02
 -0.4808250E-06  0.1100000E+02  0.0000000E+00  0.8491064E-01  0.2849528E+01  0.8131479E-01 -0.2444835E-01
 -0.1078190E+01  0.1094700E+02  0.0000000E+00  0.9957987E-01  0.2654892E+01  0.8801673E-01 -0.4657475E-01
 -0.2145990E+01  0.1078860E+02  0.0000000E+00  0.1165721E+00  0.2524219E+01  0.9505310E-01 -0.6748314E-01
 -0.3193130E+01  0.1052630E+02  0.0000000E+00  0.1335899E+00  0.2441277E+01  0.1021481E+00 -0.8609324E-01
 -0.4209520E+01  0.1016270E+02  0.0000000E+00  0.1498686E+00  0.2385531E+01  0.1090360E+00 -0.1028190E+00
 -0.5185370E+01  0.9701130E+01  0.0000000E+00  0.1652999E+00  0.2345417E+01  0.1156182E+00 -0.1181377E+00
 -0.6111270E+01  0.9146160E+01  0.0000000E+00  0.1792634E+00  0.2317101E+01  0.1217074E+00 -0.1316157E+00
 -0.6978330E+01  0.8503120E+01  0.0000000E+00  0.1904726E+00  0.2299913E+01  0.1268950E+00 -0.1420474E+00
 -0.7778170E+01  0.7778170E+01  0.0000000E+00  0.1994615E+00  0.2288250E+01  0.1311396E+00 -0.1502906E+00
 -0.8503120E+01  0.6978330E+01  0.0000000E+00  0.2066590E+00  0.2279266E+01  0.1344673E+00 -0.1569283E+00
 -0.9146170E+01  0.6111270E+01  0.0000000E+00  0.2115222E+00  0.2273412E+01  0.1366891E+00 -0.1614241E+00
 -0.9701130E+01  0.5185360E+01  0.0000000E+00  0.2129050E+00  0.2272653E+01  0.1374593E+00 -0.1625838E+00
 -0.1016270E+02  0.4209520E+01  0.0000000E+00  0.2118016E+00  0.2274233E+01  0.1370022E+00 -0.1615249E+00
 -0.1052630E+02  0.3193130E+01  0.0000000E+00  0.2087556E+00  0.2276968E+01  0.1354669E+00 -0.1588320E+00
 -0.1078860E+02  0.2145990E+01  0.0000000E+00  0.2032452E+00  0.2282515E+01  0.1327468E+00 -0.1539055E+00
 -0.1094700E+02  0.1078190E+01  0.0000000E+00  0.1944249E+00  0.2294356E+01  0.1287202E+00 -0.1457125E+00
 -0.1100000E+02 -0.9616510E-06  0.0000000E+00  0.1835016E+00  0.2311152E+01  0.1237811E+00 -0.1354661E+00
 -0.1094700E+02 -0.1078190E+01  0.0000000E+00  0.1710224E+00  0.2333293E+01  0.1181301E+00 -0.1236686E+00
 -0.1078860E+02 -0.2146000E+01  0.0000000E+00  0.1566698E+00  0.2365365E+01  0.1117935E+00 -0.1097617E+00
 -0.1052630E+02 -0.3193130E+01  0.0000000E+00  0.1402330E+00  0.2416083E+01  0.1049169E+00 -0.9304693E-01
 -0.1016270E+02 -0.4209520E+01  0.0000000E+00  0.1231237E+00  0.2489722E+01  0.9787714E-01 -0.7469604E-01
 -0.9701130E+01 -0.5185360E+01  0.0000000E+00  0.1062349E+00  0.2596413E+01  0.9083442E-01 -0.5509044E-01
 -0.9146160E+01 -0.6111270E+01  0.0000000E+00  0.9048653E-01  0.2758379E+01  0.8392335E-01 -0.3383317E-01
 -0.8503110E+01 -0.6978330E+01  0.0000000E+00  0.7819223E-01  0.3004072E+01  0.7745402E-01 -0.1071917E-01
 -0.7778170E+01 -0.7778180E+01  0.0000000E+00  0.7282502E-01 -0.2958428E+01  0.7160681E-01  0.1326452E-01
 -0.6978330E+01 -0.8503110E+01  0.0000000E+00  0.7647644E-01 -0.2623115E+01  0.6642550E-01  0.3789853E-01
 -0.6111270E+01 -0.9146170E+01  0.0000000E+00  0.8867444E-01 -0.2346051E+01  0.6206303E-01  0.6333511E-01
 -0.5185360E+01 -0.9701130E+01  0.0000000E+00  0.1068665E+00 -0.2153381E+01  0.5879628E-01  0.8923817E-01
 -0.4209510E+01 -0.1016270E+02  0.0000000E+00  0.1281232E+00 -0.2027788E+01  0.5653437E-01  0.1149757E+00
 -0.3193130E+01 -0.1052630E+02  0.0000000E+00  0.1509927E+00 -0.1944991E+01  0.5519133E-01  0.1405443E+00
 -0.2145990E+01 -0.1078860E+02  0.0000000E+00  0.1746841E+00 -0.1890142E+01  0.5484130E-01  0.1658522E+00
 -0.1078190E+01 -0.1094700E+02  0.0000000E+00  0.1980589E+00 -0.1855121E+01  0.5555730E-01  0.1901071E+00
  0.1311740E-06 -0.1100000E+02  0.0000000E+00  0.2206859E+00 -0.1832331E+01  0.5706128E-01  0.2131813E+00
  0.1078190E+01 -0.1094700E+02  0.0000000E+00  0.2426591E+00 -0.1817260E+01  0.5920294E-01  0.2353262E+00
  0.2145990E+01 -0.1078860E+02  0.0000000E+00  0.2636331E+00 -0.1807946E+01  0.6193617E-01  0.2562544E+00
  0.3193140E+01 -0.1052630E+02  0.0000000E+00  0.2824930E+00 -0.1803324E+01  0.6509717E-01  0.2748903E+00
  0.4209520E+01 -0.1016270E+02  0.0000000E+00  0.2995572E+00 -0.1801206E+01  0.6841184E-01  0.2916408E+00
  0.5185360E+01 -0.9701130E+01  0.0000000E+00  0.3152581E+00 -0.1800459E+01  0.7176815E-01  0.3069805E+00
  0.6111270E+01 -0.9146160E+01  0.0000000E+00  0.3291439E+00 -0.1800788E+01  0.7503462E-01  0.3204770E+00
  0.6978330E+01 -0.8503110E+01  0.0000000E+00  0.3399796E+00 -0.1802042E+01  0.7791983E-01  0.3309299E+00
  0.7778180E+01 -0.7778170E+01  0.0000000E+00  0.3485722E+00 -0.1803339E+01  0.8032928E-01  0.3391899E+00
  0.8503120E+01 -0.6978320E+01  0.0000000E+00  0.3554859E+00 -0.1804305E+01  0.8225675E-01  0.3458382E+00
  0.9146170E+01 -0.6111270E+01  0.0000000E+00  0.3601678E+00 -0.1804950E+01  0.8356617E-01  0.3503391E+00
  0.9701130E+01 -0.5185360E+01  0.0000000E+00  0.3614057E+00 -0.1805412E+01  0.8401567E-01  0.3515045E+00
  0.1016270E+02 -0.4209520E+01  0.0000000E+00  0.3603124E+00 -0.1805355E+01  0.8374152E-01  0.3504460E+00
  0.1052630E+02 -0.3193130E+01  0.0000000E+00  0.3574777E+00 -0.1804671E+01  0.8284485E-01  0.3477457E+00
  0.1078860E+02 -0.2145990E+01  0.0000000E+00  0.3523062E+00 -0.1803548E+01  0.8126160E-01  0.3428064E+00
  0.1094700E+02 -0.1078180E+01  0.0000000E+00  0.3437884E+00 -0.1802498E+01  0.7894541E-01  0.3346013E+00
  0.1100000E+02  0.0000000E+00 -0.2568960E-01  0.3328755E+00 -0.1801491E+01  0.7611316E-01  0.3240569E+00
  0.1094700E+02  0.1078190E+01 -0.2568960E-01  0.3206638E+00 -0.1800601E+01  0.7304303E-01  0.3122339E+00
  0.1078860E+02  0.2145990E+01 -0.2568960E-01  0.3063427E+00 -0.1800403E+01  0.6972204E-01  0.2983030E+00
  0.1052630E+02  0.3193130E+01 -0.2568960E-01  0.2893035E+00 -0.1802129E+01  0.6633002E-01  0.2815969E+00
  0.1016270E+02  0.4209520E+01 -0.2568960E-01  0.2707118E+00 -0.1806139E+01  0.6312361E-01  0.2632495E+00
  0.9701130E+01  0.5185360E+01 -0.2568960E-01  0.2509566E+00 -0.1813090E+01  0.6021211E-01  0.2436261E+00
  0.9146170E+01  0.6111270E+01 -0.2568960E-01  0.2297310E+00 -0.1824836E+01  0.5773507E-01  0.2223578E+00
  0.8503110E+01  0.6978330E+01 -0.2568960E-01  0.2069746E+00 -0.1844713E+01  0.5598750E-01  0.1992583E+00
  0.7778170E+01  0.7778170E+01 -0.2568960E-01  0.1837260E+00 -0.1875080E+01  0.5504601E-01  0.1752860E+00
  0.6978330E+01  0.8503110E+01 -0.2568960E-01  0.1603503E+00 -0.1920340E+01  0.5491497E-01  0.1506537E+00
  0.6111270E+01  0.9146170E+01 -0.2568960E-01  0.1370696E+00 -0.1989486E+01  0.5572745E-01  0.1252299E+00
  0.5185360E+01  0.9701130E+01 -0.2568960E-01  0.1148923E+00 -0.2096939E+01  0.5769903E-01  0.9935317E-01
  0.4209520E+01  0.1016270E+02 -0.2568960E-01  0.9541141E-01 -0.2259916E+01  0.6066813E-01  0.7363909E-01
  0.3193130E+01  0.1052630E+02 -0.2568960E-01  0.8047803E-01 -0.2501039E+01  0.6452445E-01  0.4809688E-01
  0.2145990E+01  0.1078860E+02 -0.2568960E-01  0.7296260E-01 -0.2823404E+01  0.6930014E-01  0.2282613E-01
  0.1078190E+01  0.1094700E+02 -0.2568960E-01  0.7498780E-01  0.3123010E+01  0.7497485E-01 -0.1393400E-02
 -0.4808250E-06  0.1100000E+02 -0.2568960E-01  0.8483596E-01  0.2849411E+01  0.8124041E-01 -0.2443637E-01
 -0.1078190E+01  0.1094700E+02 -0.2568960E-01  0.9949300E-01  0.2654855E+01  0.8793822E-01 -0.4653735E-01
 -0.2145990E+01  0.1078860E+02 -0.2568960E-01  0.1164627E+00  0.2524271E+01  0.9496739E-01 -0.6741473E-01
 -0.3193130E+01  0.1052630E+02 -0.2568960E-01  0.1334704E+00  0.2441267E+01  0.1020558E+00 -0.8601726E-01
 -0.4209520E+01  0.1016270E+02 -0.2568960E-01  0.1497443E+00  0.2385468E+01  0.1089391E+00 -0.1027406E+00
 -0.5185370E+01  0.9701130E+01 -0.2568960E-01  0.1651545E+00  0.2345405E+01  0.1155150E+00 -0.1180351E+00
 -0.6111270E+01  0.9146160E+01 -0.2568960E-01  0.1790918E+00  0.2317139E+01  0.1215959E+00 -0.1314851E+00
 -0.6978330E+01  0.8503120E+01 -0.2568960E-01  0.1903028E+00  0.2299907E+01  0.1267811E+00 -0.1419216E+00
 -0.7778170E+01  0.7778170E+01 -0.2568960E-01  0.1992964E+00  0.2288209E+01  0.1310249E+00 -0.1501716E+00
 -0.8503120E+01  0.6978330E+01 -0.2568960E-01  0.2064758E+00  0.2279261E+01  0.1343474E+00 -0.1567898E+00
 -0.9146170E+01  0.6111270E+01 -0.2568960E-01  0.2113193E+00  0.2273447E+01  0.1365635E+00 -0.1612645E+00
 -0.9701130E+01  0.5185360E+01 -0.2568960E-01  0.2127159E+00  0.2272647E+01  0.1373363E+00 -0.1624402E+00
 -0.1016270E+02  0.4209520E+01 -0.2568960E-01  0.2116263E+00  0.2274196E+01  0.1368830E+00 -0.1613963E+00
 -0.1052630E+02  0.3193130E+01 -0.2568960E-01  0.2085699E+00  0.2276963E+01  0.1353457E+00 -0.1586914E+00
 -0.1078860E+02  0.2145990E+01 -0.2568960E-01  0.2030504E+00  0.2282550E+01  0.1326249E+00 -0.1537533E+00
 -0.1094700E+02  0.1078190E+01 -0.2568960E-01  0.1942530E+00  0.2294351E+01  0.1286058E+00 -0.1455843E+00
 -0.1100000E+02 -0.9616510E-06 -0.2568960E-01  0.1833502E+00  0.2311105E+01  0.1236726E+00 -0.1353602E+00
 -0.1094700E+02 -0.1078190E+01 -0.2568960E-01  0.1708697E+00  0.2333286E+01  0.1180238E+00 -0.1235590E+00
 -0.1078860E+02 -0.2146000E+01 -0.2568960E-01  0.1565204E+00  0.2365408E+01  0.1116917E+00 -0.1096522E+00
 -0.1052630E+02 -0.3193130E+01 -0.2568960E-01  0.1401100E+00  0.2416064E+01  0.1048231E+00 -0.9296732E-01
 -0.1016270E+02 -0.4209520E+01 -0.2568960E-01  0.1230207E+00  0.2489641E+01  0.9778928E-01 -0.7464146E-01
 -0.9701130E+01 -0.5185360E+01 -0.2568960E-01  0.1061396E+00  0.2596398E+01  0.9075214E-01 -0.5504233E-01
 -0.9146160E+01 -0.6111270E+01 -0.2568960E-01  0.9040339E-01  0.2758435E+01  0.8384815E-01 -0.3379735E-01
 -0.8503110E+01 -0.6978330E+01 -0.2568960E-01  0.7812242E-01  0.3004011E+01  0.7738421E-01 -0.1071430E-01
 -0.7778170E+01 -0.7778180E+01 -0.2568960E-01  0.7275578E-01 -0.2958528E+01  0.7154007E-01  0.1324476E-01
 -0.6978330E+01 -0.8503110E+01 -0.2568960E-01  0.7640621E-01 -0.2623124E+01  0.6636484E-01  0.3786314E-01
 -0.6111270E+01 -0.9146170E+01 -0.2568960E-01  0.8859509E-01 -0.2346074E+01  0.6200900E-01  0.6327697E-01
 -0.5185360E+01 -0.9701130E+01 -0.2568960E-01  0.1067658E+00 -0.2153402E+01  0.5874275E-01  0.8915284E-01
 -0.4209510E+01 -0.1016270E+02 -0.2568960E-01  0.1280047E+00 -0.2027773E+01  0.5648047E-01  0.1148702E+00
 -0.3193130E+01 -0.1052630E+02 -0.2568960E-01  0.1508553E+00 -0.1944993E+01  0.5514139E-01  0.1404163E+00
 -0.2145990E+01 -0.1078860E+02 -0.2568960E-01  0.1745199E+00 -0.1890167E+01  0.5479384E-01  0.1656950E+00
 -0.1078190E+01 -0.1094700E+02 -0.2568960E-01  0.1978756E+00 -0.1855124E+01  0.5550653E-01  0.1899310E+00
  0.1311740E-06 -0.1100000E+02 -0.2568960E-01  0.2204903E+00 -0.1832319E+01  0.5700819E-01  0.2129930E+00
  0.1078190E+01 -0.1094700E+02 -0.2568960E-01  0.2424392E+00 -0.1817265E+01  0.5915057E-01  0.2351126E+00
  0.2145990E+01 -0.1078860E+02 -0.2568960E-01  0.2633824E+00 -0.1807963E+01  0.6188157E-01  0.2560097E+00
  0.3193140E+01 -0.1052630E+02 -0.2568960E-01  0.2822340E+00 -0.1803328E+01  0.6503845E-01  0.2746380E+00
  0.4209520E+01 -0.1016270E+02 -0.2568960E-01  0.2992954E+00 -0.1801203E+01  0.6835116E-01  0.2913861E+00
  0.5185360E+01 -0.9701130E+01 -0.2568960E-01  0.3149721E+00 -0.1800466E+01  0.7170512E-01  0.3067015E+00
  0.6111270E+01 -0.9146160E+01 -0.2568960E-01  0.3288296E+00 -0.1800800E+01  0.7496703E-01  0.3201700E+00
  0.6978330E+01 -0.8503110E+01 -0.2568960E-01  0.3396696E+00 -0.1802047E+01  0.7785048E-01  0.3306277E+00
  0.7778180E+01 -0.7778170E+01 -0.2568960E-01  0.3482690E+00 -0.1803341E+01  0.8026028E-01  0.3388946E+00
  0.8503120E+01 -0.6978320E+01 -0.2568960E-01  0.3551628E+00 -0.1804312E+01  0.8218443E-01  0.3455232E+00
  0.9146170E+01 -0.6111270E+01 -0.2568960E-01  0.3598234E+00 -0.1804962E+01  0.8349026E-01  0.3500032E+00
  0.9701130E+01 -0.5185360E+01 -0.2568960E-01  0.3610769E+00 -0.1805419E+01  0.8394171E-01  0.3511842E+00
  0.1016270E+02 -0.4209520E+01 -0.2568960E-01  0.3599987E+00 -0.1805359E+01  0.8366992E-01  0.3501406E+00
  0.1052630E+02 -0.3193130E+01 -0.2568960E-01  0.3571521E+00 -0.1804677E+01  0.8277162E-01  0.3474284E+00
  0.1078860E+02 -0.2145990E+01 -0.2568960E-01  0.3519695E+00 -0.1803560E+01  0.8118793E-01  0.3424778E+00
  0.1094700E+02 -0.1078180E+01 -0.2568960E-01  0.3434763E+00 -0.1802505E+01  0.7887615E-01  0.3342971E+00
  0.1100000E+02  0.0000000E+00 -0.1027320E+00  0.3319868E+00 -0.1801522E+01  0.7592005E-01  0.3231894E+00
  0.1094700E+02  0.1078190E+01 -0.1027320E+00  0.3197734E+00 -0.1800637E+01  0.7285156E-01  0.3113643E+00
  0.1078860E+02  0.2145990E+01 -0.1027320E+00  0.3054602E+00 -0.1800459E+01  0.6953771E-01  0.2974398E+00
  0.1052630E+02  0.3193130E+01 -0.1027320E+00  0.2885054E+00 -0.1802158E+01  0.6615508E-01  0.2808182E+00
  0.1016270E+02  0.4209520E+01 -0.1027320E+00  0.2699849E+00 -0.1806133E+01  0.6295247E-01  0.2625431E+00
  0.9701130E+01  0.5185360E+01 -0.1027320E+00  0.2502564E+00 -0.1813101E+01  0.6004664E-01  0.2429459E+00
  0.9146170E+01  0.6111270E+01 -0.1027320E+00  0.2290728E+00 -0.1824881E+01  0.5757968E-01  0.2217181E+00
  0.8503110E+01  0.6978330E+01 -0.1027320E+00  0.2064035E+00 -0.1844706E+01  0.5583164E-01  0.1987089E+00
  0.7778170E+01  0.7778170E+01 -0.1027320E+00  0.1832240E+00 -0.1875018E+01  0.5488485E-01  0.1748104E+00
  0.6978330E+01  0.8503110E+01 -0.1027320E+00  0.1598984E+00 -0.1920324E+01  0.5475787E-01  0.1502301E+00
  0.6111270E+01  0.9146170E+01 -0.1027320E+00  0.1366836E+00 -0.1989518E+01  0.5557454E-01  0.1248754E+00
  0.5185360E+01  0.9701130E+01 -0.1027320E+00  0.1145730E+00 -0.2096885E+01  0.5753337E-01  0.9908018E-01
  0.4209520E+01  0.1016270E+02 -0.1027320E+00  0.9513535E-01 -0.2259863E+01  0.6048871E-01  0.7342923E-01
  0.3193130E+01  0.1052630E+02 -0.1027320E+00  0.8024717E-01 -0.2501082E+01  0.6434144E-01  0.4795610E-01
  0.2145990E+01  0.1078860E+02 -0.1027320E+00  0.7276494E-01 -0.2823290E+01  0.6910980E-01  0.2277217E-01
  0.1078190E+01  0.1094700E+02 -0.1027320E+00  0.7477673E-01  0.3123022E+01  0.7476383E-01 -0.1388573E-02
 -0.4808250E-06  0.1100000E+02 -0.1027320E+00  0.8460408E-01  0.2849163E+01  0.8101232E-01 -0.2438960E-01
 -0.1078190E+01  0.1094700E+02 -0.1027320E+00  0.9922355E-01  0.2654806E+01  0.8769780E-01 -0.4641560E-01
 -0.2145990E+01  0.1078860E+02 -0.1027320E+00  0.1161292E+00  0.2524467E+01  0.9470862E-01 -0.6720322E-01
 -0.3193130E+01  0.1052630E+02 -0.1027320E+00  0.1331045E+00  0.2441294E+01  0.1017783E+00 -0.8577874E-01
 -0.4209520E+01  0.1016270E+02 -0.1027320E+00  0.1493602E+00  0.2385371E+01  0.1086497E+00 -0.1024877E+00
 -0.5185370E+01  0.9701130E+01 -0.1027320E+00  0.1647099E+00  0.2345440E+01  0.1152082E+00 -0.1177133E+00
 -0.6111270E+01  0.9146160E+01 -0.1027320E+00  0.1785746E+00  0.2317310E+01  0.1212671E+00 -0.1310845E+00
 -0.6978330E+01  0.8503120E+01 -0.1027320E+00  0.1897857E+00  0.2299966E+01  0.1264449E+00 -0.1415284E+00
 -0.7778170E+01  0.7778170E+01 -0.1027320E+00  0.1987889E+00  0.2288184E+01  0.1306874E+00 -0.1497926E+00
 -0.8503120E+01  0.6978330E+01 -0.1027320E+00  0.2059183E+00  0.2279325E+01  0.1339947E+00 -0.1563579E+00
 -0.9146170E+01  0.6111270E+01 -0.1027320E+00  0.2107082E+00  0.2273611E+01  0.1361950E+00 -0.1607757E+00
 -0.9701130E+01  0.5185360E+01 -0.1027320E+00  0.2121401E+00  0.2272718E+01  0.1369759E+00 -0.1619908E+00
 -0.1016270E+02  0.4209520E+01 -0.1027320E+00  0.2110876E+00  0.2274183E+01  0.1365324E+00 -0.1609872E+00
 -0.1052630E+02  0.3193130E+01 -0.1027320E+00  0.2080049E+00  0.2277029E+01  0.1349894E+00 -0.1582526E+00
 -0.1078860E+02  0.2145990E+01 -0.1027320E+00  0.2024633E+00  0.2282717E+01  0.1322670E+00 -0.1532867E+00
 -0.1094700E+02  0.1078190E+01 -0.1027320E+00  0.1937290E+00  0.2294407E+01  0.1282669E+00 -0.1451844E+00
 -0.1100000E+02 -0.9616510E-06 -0.1027320E+00  0.1828825E+00  0.2311059E+01  0.1233508E+00 -0.1350206E+00
 -0.1094700E+02 -0.1078190E+01 -0.1027320E+00  0.1704042E+00  0.2333333E+01  0.1177080E+00 -0.1232169E+00
 -0.1078860E+02 -0.2146000E+01 -0.1027320E+00  0.1560691E+00  0.2365586E+01  0.1113890E+00 -0.1093162E+00
 -0.1052630E+02 -0.3193130E+01 -0.1027320E+00  0.1397329E+00  0.2416080E+01  0.1045425E+00 -0.9271540E-01
 -0.1016270E+02 -0.4209520E+01 -0.1027320E+00  0.1227016E+00  0.2489488E+01  0.9752423E-01 -0.7446272E-01
 -0.9701130E+01 -0.5185360E+01 -0.1027320E+00  0.1058465E+00  0.2596406E+01  0.9050195E-01 -0.5488962E-01
 -0.9146160E+01 -0.6111270E+01 -0.1027320E+00  0.9014873E-01  0.2758642E+01  0.8361890E-01 -0.3368491E-01
 -0.8503110E+01 -0.6978330E+01 -0.1027320E+00  0.7790723E-01  0.3003918E+01  0.7717006E-01 -0.1069202E-01
 -0.7778170E+01 -0.7778180E+01 -0.1027320E+00  0.7254427E-01 -0.2958717E+01  0.7133458E-01  0.1319275E-01
 -0.6978330E+01 -0.8503110E+01 -0.1027320E+00  0.7619072E-01 -0.2623074E+01  0.6617579E-01  0.3775964E-01
 -0.6111270E+01 -0.9146170E+01 -0.1027320E+00  0.8835235E-01 -0.2346062E+01  0.6183834E-01  0.6310434E-01
 -0.5185360E+01 -0.9701130E+01 -0.1027320E+00  0.1064611E+00 -0.2153397E+01  0.5857461E-01  0.8889868E-01
 -0.4209510E+01 -0.1016270E+02 -0.1027320E+00  0.1276456E+00 -0.2027689E+01  0.5631229E-01  0.1145527E+00
 -0.3193130E+01 -0.1052630E+02 -0.1027320E+00  0.1504381E+00 -0.1944959E+01  0.5498409E-01  0.1400299E+00
 -0.2145990E+01 -0.1078860E+02 -0.1027320E+00  0.1740237E+00 -0.1890205E+01  0.5464441E-01  0.1652217E+00
 -0.1078190E+01 -0.1094700E+02 -0.1027320E+00  0.1973210E+00 -0.1855117E+01  0.5534960E-01  0.1893990E+00
  0.1311740E-06 -0.1100000E+02 -0.1027320E+00  0.2198936E+00 -0.1832281E+01  0.5684576E-01  0.2124188E+00
  0.1078190E+01 -0.1094700E+02 -0.1027320E+00  0.2417703E+00 -0.1817274E+01  0.5898946E-01  0.2344634E+00
  0.2145990E+01 -0.1078860E+02 -0.1027320E+00  0.2626254E+00 -0.1808013E+01  0.6171646E-01  0.2552708E+00
  0.3193140E+01 -0.1052630E+02 -0.1027320E+00  0.2814482E+00 -0.1803350E+01  0.6486355E-01  0.2738719E+00
  0.4209520E+01 -0.1016270E+02 -0.1027320E+00  0.2984942E+00 -0.1801214E+01  0.6817146E-01  0.2906053E+00
  0.5185360E+01 -0.9701130E+01 -0.1027320E+00  0.3141022E+00 -0.1800505E+01  0.7151923E-01  0.3058516E+00
  0.6111270E+01 -0.9146160E+01 -0.1027320E+00  0.3278809E+00 -0.1800860E+01  0.7476992E-01  0.3192419E+00
  0.6978330E+01 -0.8503110E+01 -0.1027320E+00  0.3387275E+00 -0.1802092E+01  0.7764948E-01  0.3297073E+00
  0.7778180E+01 -0.7778170E+01 -0.1027320E+00  0.3473401E+00 -0.1803381E+01  0.8005968E-01  0.3379875E+00
  0.8503120E+01 -0.6978320E+01 -0.1027320E+00  0.3541811E+00 -0.1804366E+01  0.8197590E-01  0.3445637E+00
  0.9146170E+01 -0.6111270E+01 -0.1027320E+00  0.3587840E+00 -0.1805028E+01  0.8327217E-01  0.3489867E+00
  0.9701130E+01 -0.5185360E+01 -0.1027320E+00  0.3600775E+00 -0.1805474E+01  0.8372864E-01  0.3502075E+00
  0.1016270E+02 -0.4209520E+01 -0.1027320E+00  0.3590392E+00 -0.1805406E+01  0.8346344E-01  0.3492034E+00
  0.1052630E+02 -0.3193130E+01 -0.1027320E+00  0.3561627E+00 -0.1804730E+01  0.8256064E-01  0.3464615E+00
  0.1078860E+02 -0.2145990E+01 -0.1027320E+00  0.3509532E+00 -0.1803624E+01  0.8097541E-01  0.3414837E+00
  0.1094700E+02 -0.1078180E+01 -0.1027320E+00  0.3425270E+00 -0.1802555E+01  0.7867479E-01  0.3333692E+00
  0.1100000E+02  0.0000000E+00 -0.2310450E+00  0.3306200E+00 -0.1801482E+01  0.7559470E-01  0.3218618E+00
  0.1094700E+02  0.1078190E+01 -0.2310450E+00  0.3183939E+00 -0.1800611E+01  0.7252932E-01  0.3100229E+00
  0.1078860E+02  0.2145990E+01 -0.2310450E+00  0.3040830E+00 -0.1800469E+01  0.6922718E-01  0.2960981E+00
  0.1052630E+02  0.3193130E+01 -0.2310450E+00  0.2872640E+00 -0.1802124E+01  0.6586090E-01  0.2796121E+00
  0.1016270E+02  0.4209520E+01 -0.2310450E+00  0.2688572E+00 -0.1806038E+01  0.6266461E-01  0.2614523E+00
  0.9701130E+01  0.5185360E+01 -0.2310450E+00  0.2491604E+00 -0.1813040E+01  0.5976897E-01  0.2418854E+00
  0.9146170E+01  0.6111270E+01 -0.2310450E+00  0.2280348E+00 -0.1824883E+01  0.5731915E-01  0.2207133E+00
  0.8503110E+01  0.6978330E+01 -0.2310450E+00  0.2055018E+00 -0.1844621E+01  0.5557083E-01  0.1978455E+00
  0.7778170E+01  0.7778170E+01 -0.2310450E+00  0.1824273E+00 -0.1874840E+01  0.5461532E-01  0.1740600E+00
  0.6978330E+01  0.8503110E+01 -0.2310450E+00  0.1591719E+00 -0.1920235E+01  0.5449582E-01  0.1495523E+00
  0.6111270E+01  0.9146170E+01 -0.2310450E+00  0.1360558E+00 -0.1989530E+01  0.5532085E-01  0.1243012E+00
  0.5185360E+01  0.9701130E+01 -0.2310450E+00  0.1140456E+00 -0.2096781E+01  0.5725827E-01  0.9863008E-01
  0.4209520E+01  0.1016270E+02 -0.2310450E+00  0.9466966E-01 -0.2259833E+01  0.6019039E-01  0.7307161E-01
  0.3193130E+01  0.1052630E+02 -0.2310450E+00  0.7985242E-01 -0.2501372E+01  0.6403878E-01  0.4770161E-01
  0.2145990E+01  0.1078860E+02 -0.2310450E+00  0.7242859E-01 -0.2823509E+01  0.6879532E-01  0.2265183E-01
  0.1078190E+01  0.1094700E+02 -0.2310450E+00  0.7442875E-01  0.3122464E+01  0.7441513E-01 -0.1423633E-02
 -0.4808250E-06  0.1100000E+02 -0.2310450E+00  0.8423742E-01  0.2848121E+01  0.8063589E-01 -0.2436793E-01
 -0.1078190E+01  0.1094700E+02 -0.2310450E+00  0.9880912E-01  0.2654164E+01  0.8730181E-01 -0.4627782E-01
 -0.2145990E+01  0.1078860E+02 -0.2310450E+00  0.1156194E+00  0.2524302E+01  0.9428176E-01 -0.6692376E-01
 -0.3193130E+01  0.1052630E+02 -0.2310450E+00  0.1325531E+00  0.2440871E+01  0.1013205E+00 -0.8546616E-01
 -0.4209520E+01  0.1016270E+02 -0.2310450E+00  0.1487899E+00  0.2384761E+01  0.1081726E+00 -0.1021623E+00
 -0.5185370E+01  0.9701130E+01 -0.2310450E+00  0.1640448E+00  0.2345096E+01  0.1147027E+00 -0.1172774E+00
 -0.6111270E+01  0.9146160E+01 -0.2310450E+00  0.1777917E+00  0.2317219E+01  0.1207236E+00 -0.1305209E+00
 -0.6978330E+01  0.8503120E+01 -0.2310450E+00  0.1890126E+00  0.2299687E+01  0.1258904E+00 -0.1409871E+00
 -0.7778170E+01  0.7778170E+01 -0.2310450E+00  0.1980391E+00  0.2287762E+01  0.1301315E+00 -0.1492825E+00
 -0.8503120E+01  0.6978330E+01 -0.2310450E+00  0.2050854E+00  0.2279074E+01  0.1334136E+00 -0.1557589E+00
 -0.9146170E+01  0.6111270E+01 -0.2310450E+00  0.2097843E+00  0.2273540E+01  0.1355864E+00 -0.1600806E+00
 -0.9701130E+01  0.5185360E+01 -0.2310450E+00  0.2112803E+00  0.2272476E+01  0.1363817E+00 -0.1613673E+00
 -0.1016270E+02  0.4209520E+01 -0.2310450E+00  0.2102925E+00  0.2273796E+01  0.1359560E+00 -0.1604334E+00
 -0.1052630E+02  0.3193130E+01 -0.2310450E+00  0.2071603E+00  0.2276783E+01  0.1344026E+00 -0.1576430E+00
 -0.1078860E+02  0.2145990E+01 -0.2310450E+00  0.2015758E+00  0.2282640E+01  0.1316756E+00 -0.1526249E+00
 -0.1094700E+02  0.1078190E+01 -0.2310450E+00  0.1929467E+00  0.2294132E+01  0.1277093E+00 -0.1446333E+00
 -0.1100000E+02 -0.9616510E-06 -0.2310450E+00  0.1821913E+00  0.2310588E+01  0.1228214E+00 -0.1345681E+00
 -0.1094700E+02 -0.1078190E+01 -0.2310450E+00  0.1697073E+00  0.2333014E+01  0.1171876E+00 -0.1227503E+00
 -0.1078860E+02 -0.2146000E+01 -0.2310450E+00  0.1553852E+00  0.2365474E+01  0.1108887E+00 -0.1088497E+00
 -0.1052630E+02 -0.3193130E+01 -0.2310450E+00  0.1391668E+00  0.2415651E+01  0.1040793E+00 -0.9238452E-01
 -0.1016270E+02 -0.4209520E+01 -0.2310450E+00  0.1222231E+00  0.2488726E+01  0.9708738E-01 -0.7424638E-01
 -0.9701130E+01 -0.5185360E+01 -0.2310450E+00  0.1053973E+00  0.2595882E+01  0.9008928E-01 -0.5470396E-01
 -0.9146160E+01 -0.6111270E+01 -0.2310450E+00  0.8974924E-01  0.2758417E+01  0.8324079E-01 -0.3355438E-01
 -0.8503110E+01 -0.6978330E+01 -0.2310450E+00  0.7755765E-01  0.3003150E+01  0.7681559E-01 -0.1070303E-01
 -0.7778170E+01 -0.7778180E+01 -0.2310450E+00  0.7218692E-01 -0.2959552E+01  0.7099412E-01  0.1306849E-01
 -0.6978330E+01 -0.8503110E+01 -0.2310450E+00  0.7582139E-01 -0.2623280E+01  0.6586274E-01  0.3756306E-01
 -0.6111270E+01 -0.9146170E+01 -0.2310450E+00  0.8794094E-01 -0.2346157E+01  0.6155635E-01  0.6280465E-01
 -0.5185360E+01 -0.9701130E+01 -0.2310450E+00  0.1059534E+00 -0.2153401E+01  0.5829560E-01  0.8847450E-01
 -0.4209510E+01 -0.1016270E+02 -0.2310450E+00  0.1270580E+00 -0.2027505E+01  0.5603212E-01  0.1140357E+00
 -0.3193130E+01 -0.1052630E+02 -0.2310450E+00  0.1497654E+00 -0.1944842E+01  0.5472194E-01  0.1394102E+00
 -0.2145990E+01 -0.1078860E+02 -0.2310450E+00  0.1732300E+00 -0.1890208E+01  0.5439563E-01  0.1644681E+00
 -0.1078190E+01 -0.1094700E+02 -0.2310450E+00  0.1964415E+00 -0.1855033E+01  0.5508700E-01  0.1885595E+00
  0.1311740E-06 -0.1100000E+02 -0.2310450E+00  0.2189572E+00 -0.1832137E+01  0.5657325E-01  0.2115224E+00
  0.1078190E+01 -0.1094700E+02 -0.2310450E+00  0.2407227E+00 -0.1817212E+01  0.5871930E-01  0.2334512E+00
  0.2145990E+01 -0.1078860E+02 -0.2310450E+00  0.2614387E+00 -0.1808017E+01  0.6143875E-01  0.2541171E+00
  0.3193140E+01 -0.1052630E+02 -0.2310450E+00  0.2802249E+00 -0.1803304E+01  0.6456906E-01  0.2726845E+00
  0.4209520E+01 -0.1016270E+02 -0.2310450E+00  0.2972565E+00 -0.1801145E+01  0.6786872E-01  0.2894050E+00
  0.5185360E+01 -0.9701130E+01 -0.2310450E+00  0.3127551E+00 -0.1800483E+01  0.7120582E-01  0.3045414E+00
  0.6111270E+01 -0.9146160E+01 -0.2310450E+00  0.3264049E+00 -0.1800873E+01  0.7443725E-01  0.3178038E+00
  0.6978330E+01 -0.8503110E+01 -0.2310450E+00  0.3372709E+00 -0.1802077E+01  0.7731058E-01  0.3282906E+00
  0.7778180E+01 -0.7778170E+01 -0.2310450E+00  0.3459142E+00 -0.1803355E+01  0.7972209E-01  0.3366021E+00
  0.8503120E+01 -0.6978320E+01 -0.2310450E+00  0.3526654E+00 -0.1804363E+01  0.8162404E-01  0.3430895E+00
  0.9146170E+01 -0.6111270E+01 -0.2310450E+00  0.3571713E+00 -0.1805043E+01  0.8290315E-01  0.3474168E+00
  0.9701130E+01 -0.5185360E+01 -0.2310450E+00  0.3585357E+00 -0.1805472E+01  0.8336940E-01  0.3487082E+00
  0.1016270E+02 -0.4209520E+01 -0.2310450E+00  0.3575683E+00 -0.1805389E+01  0.8311551E-01  0.3477742E+00
  0.1052630E+02 -0.3193130E+01 -0.2310450E+00  0.3546360E+00 -0.1804725E+01  0.8220489E-01  0.3449769E+00
  0.1078860E+02 -0.2145990E+01 -0.2310450E+00  0.3493749E+00 -0.1803639E+01  0.8061620E-01  0.3399468E+00
  0.1094700E+02 -0.1078180E+01 -0.2310450E+00  0.3410607E+00 -0.1802547E+01  0.7833550E-01  0.3319427E+00
  0.1100000E+02  0.0000000E+00 -0.4105000E+00  0.3287090E+00 -0.1801432E+01  0.7514184E-01  0.3200051E+00
  0.1094700E+02  0.1078190E+01 -0.4105000E+00  0.3164850E+00 -0.1800579E+01  0.7208458E-01  0.3081665E+00
  0.1078860E+02  0.2145990E+01 -0.4105000E+00  0.3021702E+00 -0.1800492E+01  0.6879845E-01  0.2942339E+00
  0.1052630E+02  0.3193130E+01 -0.4105000E+00  0.2855420E+00 -0.1802081E+01  0.6545429E-01  0.2779388E+00
  0.1016270E+02  0.4209520E+01 -0.4105000E+00  0.2672815E+00 -0.1805931E+01  0.6226961E-01  0.2599267E+00
  0.9701130E+01  0.5185360E+01 -0.4105000E+00  0.2476461E+00 -0.1812972E+01  0.5938941E-01  0.2404194E+00
  0.9146170E+01  0.6111270E+01 -0.4105000E+00  0.2265934E+00 -0.1824919E+01  0.5696465E-01  0.2193162E+00
  0.8503110E+01  0.6978330E+01 -0.4105000E+00  0.2042490E+00 -0.1844532E+01  0.5521464E-01  0.1966444E+00
  0.7778170E+01  0.7778170E+01 -0.4105000E+00  0.1813188E+00 -0.1874653E+01  0.5425102E-01  0.1730125E+00
  0.6978330E+01  0.8503110E+01 -0.4105000E+00  0.1581700E+00 -0.1920151E+01  0.5414018E-01  0.1486156E+00
  0.6111270E+01  0.9146170E+01 -0.4105000E+00  0.1351870E+00 -0.1989617E+01  0.5497833E-01  0.1235026E+00
  0.5185360E+01  0.9701130E+01 -0.4105000E+00  0.1133133E+00 -0.2096720E+01  0.5688463E-01  0.9800025E-01
  0.4209520E+01  0.1016270E+02 -0.4105000E+00  0.9403063E-01 -0.2259880E+01  0.5978748E-01  0.7257558E-01
  0.3193130E+01  0.1052630E+02 -0.4105000E+00  0.7931136E-01 -0.2501810E+01  0.6362562E-01  0.4735053E-01
  0.2145990E+01  0.1078860E+02 -0.4105000E+00  0.7197020E-01 -0.2823856E+01  0.6836773E-01  0.2248472E-01
  0.1078190E+01  0.1094700E+02 -0.4105000E+00  0.7395394E-01  0.3121595E+01  0.7393915E-01 -0.1478835E-02
 -0.4808250E-06  0.1100000E+02 -0.4105000E+00  0.8373374E-01  0.2846755E+01  0.8012056E-01 -0.2433177E-01
 -0.1078190E+01  0.1094700E+02 -0.4105000E+00  0.9823741E-01  0.2653273E+01  0.8675567E-01 -0.4608734E-01
 -0.2145990E+01  0.1078860E+02 -0.4105000E+00  0.1149150E+00  0.2524099E+01  0.9369387E-01 -0.6653505E-01
 -0.3193130E+01  0.1052630E+02 -0.4105000E+00  0.1317963E+00  0.2440264E+01  0.1006904E+00 -0.8503938E-01
 -0.4209520E+01  0.1016270E+02 -0.4105000E+00  0.1479921E+00  0.2383965E+01  0.1075116E+00 -0.1017001E+00
 -0.5185370E+01  0.9701130E+01 -0.4105000E+00  0.1631250E+00  0.2344599E+01  0.1140015E+00 -0.1166765E+00
 -0.6111270E+01  0.9146160E+01 -0.4105000E+00  0.1767054E+00  0.2317094E+01  0.1199698E+00 -0.1297384E+00
 -0.6978330E+01  0.8503120E+01 -0.4105000E+00  0.1879459E+00  0.2299274E+01  0.1251221E+00 -0.1402431E+00
 -0.7778170E+01  0.7778170E+01 -0.4105000E+00  0.1969861E+00  0.2287197E+01  0.1293557E+00 -0.1485619E+00