 VARIABLES="X" "Y" "Z" "abs(eta) (m)" "angle(phi) (rad)" "PRE1" "PRE2"
ZONE N=   3200 ,E =    3136 ,F=FEPOINT,ET=QUADRILATERAL
  0.1010000E+02  0.0000000E+00  0.0000000E+00  0.9471322E+00 -0.1202686E+01 -0.3408280E+00  0.8836830E+00
  0.1005140E+02  0.9899730E+00  0.0000000E+00  0.9430088E+00 -0.1202760E+01 -0.3392794E+00  0.8798609E+00
  0.9905930E+01  0.1970410E+01  0.0000000E+00  0.9292983E+00 -0.1202750E+01 -0.3343553E+00  0.8670651E+00
  0.9665100E+01  0.2931880E+01  0.0000000E+00  0.9065957E+00 -0.1202730E+01 -0.3262036E+00  0.8458765E+00
  0.9331180E+01  0.3865100E+01  0.0000000E+00  0.8750358E+00 -0.1202687E+01 -0.3148838E+00  0.8164164E+00
  0.8907400E+01  0.4761110E+01  0.0000000E+00  0.8358666E+00 -0.1202796E+01 -0.3007033E+00  0.7799042E+00
  0.8397840E+01  0.5611260E+01  0.0000000E+00  0.7878166E+00 -0.1202749E+01 -0.2834520E+00  0.7350578E+00
  0.7807410E+01  0.6407370E+01  0.0000000E+00  0.7321593E+00 -0.1202692E+01 -0.2634658E+00  0.6831127E+00
  0.7141780E+01  0.7141780E+01  0.0000000E+00  0.6697239E+00 -0.1202687E+01 -0.2410018E+00  0.6248586E+00
  0.6407370E+01  0.7807410E+01  0.0000000E+00  0.6014608E+00 -0.1202847E+01 -0.2163472E+00  0.5612031E+00
  0.5611260E+01  0.8397840E+01  0.0000000E+00  0.5264077E+00 -0.1202752E+01 -0.1893970E+00  0.4911556E+00
  0.4761110E+01  0.8907410E+01  0.0000000E+00  0.4462542E+00 -0.1202610E+01 -0.1606177E+00  0.4163470E+00
  0.3865100E+01  0.9331180E+01  0.0000000E+00  0.3624507E+00 -0.1202687E+01 -0.1304288E+00  0.3381698E+00
  0.2931870E+01  0.9665100E+01  0.0000000E+00  0.2754950E+00 -0.1203009E+01 -0.9905453E-01  0.2570714E+00
  0.1970410E+01  0.9905930E+01  0.0000000E+00  0.1848415E+00 -0.1202745E+01 -0.6650559E-01  0.1724627E+00
  0.9899730E+00  0.1005140E+02  0.0000000E+00  0.9241237E-01 -0.1201964E+01 -0.3331714E-01  0.8619753E-01
 -0.4414850E-06  0.1010000E+02  0.0000000E+00  0.3481180E-06 -0.2646163E+01  0.3062619E-06  0.1654987E-06
 -0.9899740E+00  0.1005140E+02  0.0000000E+00  0.9241246E-01  0.1939637E+01  0.3331789E-01 -0.8619734E-01
 -0.1970410E+01  0.9905930E+01  0.0000000E+00  0.1848413E+00  0.1938851E+01  0.6650604E-01 -0.1724624E+00
 -0.2931880E+01  0.9665100E+01  0.0000000E+00  0.2754961E+00  0.1938586E+01  0.9905557E-01 -0.2570721E+00
 -0.3865100E+01  0.9331180E+01  0.0000000E+00  0.3624503E+00  0.1938908E+01  0.1304293E+00 -0.3381692E+00
 -0.4761110E+01  0.8907400E+01  0.0000000E+00  0.4462545E+00  0.1938985E+01  0.1606185E+00 -0.4163470E+00
 -0.5611260E+01  0.8397840E+01  0.0000000E+00  0.5264083E+00  0.1938842E+01  0.1893978E+00 -0.4911559E+00
 -0.6407370E+01  0.7807410E+01  0.0000000E+00  0.6014600E+00  0.1938746E+01  0.2163472E+00 -0.5612023E+00
 -0.7141780E+01  0.7141780E+01  0.0000000E+00  0.6697241E+00  0.1938907E+01  0.2410021E+00 -0.6248587E+00
 -0.7807410E+01  0.6407370E+01  0.0000000E+00  0.7321582E+00  0.1938903E+01  0.2634669E+00 -0.6831111E+00
 -0.8397840E+01  0.5611260E+01  0.0000000E+00  0.7878170E+00  0.1938843E+01  0.2834518E+00 -0.7350583E+00
 -0.8907410E+01  0.4761110E+01  0.0000000E+00  0.8358669E+00  0.1938798E+01  0.3007045E+00 -0.7799040E+00
 -0.9331180E+01  0.3865100E+01  0.0000000E+00  0.8750349E+00  0.1938906E+01  0.3148837E+00 -0.8164156E+00
 -0.9665100E+01  0.2931880E+01  0.0000000E+00  0.9065956E+00  0.1938863E+01  0.3262043E+00 -0.8458760E+00
 -0.9905930E+01  0.1970410E+01  0.0000000E+00  0.9292997E+00  0.1938843E+01  0.3343557E+00 -0.8670664E+00
 -0.1005140E+02  0.9899730E+00  0.0000000E+00  0.9430095E+00  0.1938833E+01  0.3392799E+00 -0.8798614E+00
 -0.1010000E+02 -0.8829700E-06  0.0000000E+00  0.9471328E+00  0.1938907E+01  0.3408284E+00 -0.8836835E+00
 -0.1005140E+02 -0.9899740E+00  0.0000000E+00  0.9430097E+00  0.1938833E+01  0.3392798E+00 -0.8798617E+00
 -0.9905930E+01 -0.1970410E+01  0.0000000E+00  0.9292989E+00  0.1938843E+01  0.3343561E+00 -0.8670654E+00
 -0.9665100E+01 -0.2931880E+01  0.0000000E+00  0.9065953E+00  0.1938863E+01  0.3262042E+00 -0.8458758E+00
 -0.9331180E+01 -0.3865100E+01  0.0000000E+00  0.8750353E+00  0.1938907E+01  0.3148842E+00 -0.8164158E+00
 -0.8907400E+01 -0.4761110E+01  0.0000000E+00  0.8358675E+00  0.1938796E+01  0.3007034E+00 -0.7799051E+00
 -0.8397840E+01 -0.5611260E+01  0.0000000E+00  0.7878175E+00  0.1938844E+01  0.2834526E+00 -0.7350585E+00
 -0.7807400E+01 -0.6407370E+01  0.0000000E+00  0.7321591E+00  0.1938902E+01  0.2634667E+00 -0.6831122E+00
 -0.7141780E+01 -0.7141780E+01  0.0000000E+00  0.6697248E+00  0.1938907E+01  0.2410025E+00 -0.6248592E+00
 -0.6407370E+01 -0.7807410E+01  0.0000000E+00  0.6014614E+00  0.1938746E+01  0.2163474E+00 -0.5612037E+00
 -0.5611260E+01 -0.8397850E+01  0.0000000E+00  0.5264071E+00  0.1938843E+01  0.1893978E+00 -0.4911547E+00
 -0.4761110E+01 -0.8907410E+01  0.0000000E+00  0.4462541E+00  0.1938985E+01  0.1606187E+00 -0.4163465E+00
 -0.3865100E+01 -0.9331190E+01  0.0000000E+00  0.3624500E+00  0.1938908E+01  0.1304292E+00 -0.3381689E+00
 -0.2931870E+01 -0.9665100E+01  0.0000000E+00  0.2754953E+00  0.1938585E+01  0.9905522E-01 -0.2570714E+00
 -0.1970410E+01 -0.9905930E+01  0.0000000E+00  0.1848414E+00  0.1938850E+01  0.6650601E-01 -0.1724624E+00
 -0.9899710E+00 -0.1005140E+02  0.0000000E+00  0.9241258E-01  0.1939635E+01  0.3331774E-01 -0.8619752E-01
  0.1204410E-06 -0.1010000E+02  0.0000000E+00  0.4872525E-06  0.2658149E+01  0.4314131E-06 -0.2264899E-06
  0.9899760E+00 -0.1005140E+02  0.0000000E+00  0.9241237E-01 -0.1201965E+01 -0.3331699E-01  0.8619758E-01
  0.1970410E+01 -0.9905930E+01  0.0000000E+00  0.1848410E+00 -0.1202746E+01 -0.6650533E-01  0.1724623E+00
  0.2931880E+01 -0.9665100E+01  0.0000000E+00  0.2754956E+00 -0.1203009E+01 -0.9905490E-01  0.2570719E+00
  0.3865100E+01 -0.9331180E+01  0.0000000E+00  0.3624501E+00 -0.1202687E+01 -0.1304284E+00  0.3381693E+00
  0.4761110E+01 -0.8907410E+01  0.0000000E+00  0.4462534E+00 -0.1202608E+01 -0.1606180E+00  0.4163460E+00
  0.5611260E+01 -0.8397840E+01  0.0000000E+00  0.5264077E+00 -0.1202751E+01 -0.1893977E+00  0.4911554E+00
  0.6407370E+01 -0.7807410E+01  0.0000000E+00  0.6014597E+00 -0.1202847E+01 -0.2163465E+00  0.5612022E+00
  0.7141780E+01 -0.7141780E+01  0.0000000E+00  0.6697241E+00 -0.1202687E+01 -0.2410016E+00  0.6248589E+00
  0.7807410E+01 -0.6407370E+01  0.0000000E+00  0.7321580E+00 -0.1202690E+01 -0.2634663E+00  0.6831112E+00
  0.8397840E+01 -0.5611260E+01  0.0000000E+00  0.7878173E+00 -0.1202749E+01 -0.2834519E+00  0.7350586E+00
  0.8907410E+01 -0.4761110E+01  0.0000000E+00  0.8358653E+00 -0.1202795E+01 -0.3007033E+00  0.7799028E+00
  0.9331180E+01 -0.3865100E+01  0.0000000E+00  0.8750340E+00 -0.1202687E+01 -0.3148831E+00  0.8164148E+00
  0.9665100E+01 -0.2931870E+01  0.0000000E+00  0.9065962E+00 -0.1202731E+01 -0.3262036E+00  0.8458770E+00
  0.9905930E+01 -0.1970410E+01  0.0000000E+00  0.9292984E+00 -0.1202750E+01 -0.3343553E+00  0.8670652E+00
  0.1005140E+02 -0.9899690E+00  0.0000000E+00  0.9430093E+00 -0.1202760E+01 -0.3392796E+00  0.8798613E+00
  0.1010000E+02  0.0000000E+00 -0.2568960E-01  0.9456979E+00 -0.1202705E+01 -0.3402953E+00  0.8823512E+00
  0.1005140E+02  0.9899730E+00 -0.2568960E-01  0.9416086E+00 -0.1202783E+01 -0.3387550E+00  0.8785623E+00
  0.9905930E+01  0.1970410E+01 -0.2568960E-01  0.9277835E+00 -0.1202749E+01 -0.3338107E+00  0.8656516E+00
  0.9665100E+01  0.2931880E+01 -0.2568960E-01  0.9052497E+00 -0.1202754E+01 -0.3256994E+00  0.8446283E+00
  0.9331180E+01  0.3865100E+01 -0.2568960E-01  0.8737102E+00 -0.1202705E+01 -0.3143916E+00  0.8151855E+00
  0.8907400E+01  0.4761110E+01 -0.2568960E-01  0.8346243E+00 -0.1202819E+01 -0.3002388E+00  0.7787518E+00
  0.8397840E+01  0.5611260E+01 -0.2568960E-01  0.7865340E+00 -0.1202749E+01 -0.2829902E+00  0.7338611E+00
  0.7807410E+01  0.6407370E+01 -0.2568960E-01  0.7310717E+00 -0.1202714E+01 -0.2630592E+00  0.6821039E+00
  0.7141780E+01  0.7141780E+01 -0.2568960E-01  0.6687106E+00 -0.1202706E+01 -0.2406249E+00  0.6239179E+00
  0.6407370E+01  0.7807410E+01 -0.2568960E-01  0.6005661E+00 -0.1202870E+01 -0.2160121E+00  0.5603734E+00
  0.5611260E+01  0.8397840E+01 -0.2568960E-01  0.5255497E+00 -0.1202750E+01 -0.1890891E+00  0.4903548E+00
  0.4761110E+01  0.8907410E+01 -0.2568960E-01  0.4455917E+00 -0.1202633E+01 -0.1603697E+00  0.4157324E+00
  0.3865100E+01  0.9331180E+01 -0.2568960E-01  0.3619017E+00 -0.1202706E+01 -0.1302245E+00  0.3376602E+00
  0.2931870E+01  0.9665100E+01 -0.2568960E-01  0.2750849E+00 -0.1203030E+01 -0.9890173E-01  0.2566908E+00
  0.1970410E+01  0.9905930E+01 -0.2568960E-01  0.1845404E+00 -0.1202745E+01 -0.6639732E-01  0.1721817E+00
  0.9899730E+00  0.1005140E+02 -0.2568960E-01  0.9227604E-01 -0.1201990E+01 -0.3326572E-01  0.8607125E-01
 -0.4414850E-06  0.1010000E+02 -0.2568960E-01  0.2628034E-06 -0.2237852E+01  0.1625899E-06  0.2064707E-06
 -0.9899740E+00  0.1005140E+02 -0.2568960E-01  0.9227619E-01  0.1939607E+01  0.3326615E-01 -0.8607124E-01
 -0.1970410E+01  0.9905930E+01 -0.2568960E-01  0.1845401E+00  0.1938851E+01  0.6639779E-01 -0.1721813E+00
 -0.2931880E+01  0.9665100E+01 -0.2568960E-01  0.2750858E+00  0.1938564E+01  0.9890243E-01 -0.2566914E+00
 -0.3865100E+01  0.9331180E+01 -0.2568960E-01  0.3619013E+00  0.1938890E+01  0.1302255E+00 -0.3376594E+00
 -0.4761110E+01  0.8907400E+01 -0.2568960E-01  0.4455922E+00  0.1938962E+01  0.1603705E+00 -0.4157327E+00
 -0.5611260E+01  0.8397840E+01 -0.2568960E-01  0.5255502E+00  0.1938843E+01  0.1890898E+00 -0.4903550E+00
 -0.6407370E+01  0.7807410E+01 -0.2568960E-01  0.6005662E+00  0.1938724E+01  0.2160131E+00 -0.5603732E+00
 -0.7141780E+01  0.7141780E+01 -0.2568960E-01  0.6687104E+00  0.1938887E+01  0.2406254E+00 -0.6239174E+00
 -0.7807410E+01  0.6407370E+01 -0.2568960E-01  0.7310712E+00  0.1938880E+01  0.2630598E+00 -0.6821031E+00
 -0.8397840E+01  0.5611260E+01 -0.2568960E-01  0.7865337E+00  0.1938844E+01  0.2829907E+00 -0.7338607E+00
 -0.8907410E+01  0.4761110E+01 -0.2568960E-01  0.8346233E+00  0.1938775E+01  0.3002390E+00 -0.7787506E+00
 -0.9331180E+01  0.3865100E+01 -0.2568960E-01  0.8737100E+00  0.1938888E+01  0.3143916E+00 -0.8151854E+00
 -0.9665100E+01  0.2931880E+01 -0.2568960E-01  0.9052501E+00  0.1938839E+01  0.3256996E+00 -0.8446287E+00
 -0.9905930E+01  0.1970410E+01 -0.2568960E-01  0.9277831E+00  0.1938844E+01  0.3338116E+00 -0.8656508E+00
 -0.1005140E+02  0.9899730E+00 -0.2568960E-01  0.9416097E+00  0.1938809E+01  0.3387553E+00 -0.8785635E+00
 -0.1010000E+02 -0.8829700E-06 -0.2568960E-01  0.9456994E+00  0.1938888E+01  0.3402960E+00 -0.8823525E+00
 -0.1005140E+02 -0.9899740E+00 -0.2568960E-01  0.9416087E+00  0.1938809E+01  0.3387552E+00 -0.8785624E+00
 -0.9905930E+01 -0.1970410E+01 -0.2568960E-01  0.9277849E+00  0.1938843E+01  0.3338113E+00 -0.8656528E+00
 -0.9665100E+01 -0.2931880E+01 -0.2568960E-01  0.9052496E+00  0.1938840E+01  0.3257001E+00 -0.8446279E+00
 -0.9331180E+01 -0.3865100E+01 -0.2568960E-01  0.8737103E+00  0.1938888E+01  0.3143923E+00 -0.8151854E+00
 -0.8907400E+01 -0.4761110E+01 -0.2568960E-01  0.8346239E+00  0.1938775E+01  0.3002397E+00 -0.7787510E+00
 -0.8397840E+01 -0.5611260E+01 -0.2568960E-01  0.7865343E+00  0.1938844E+01  0.2829906E+00 -0.7338614E+00
 -0.7807400E+01 -0.6407370E+01 -0.2568960E-01  0.7310718E+00  0.1938879E+01  0.2630596E+00 -0.6821038E+00
 -0.7141780E+01 -0.7141780E+01 -0.2568960E-01  0.6687105E+00  0.1938888E+01  0.2406256E+00 -0.6239175E+00
 -0.6407370E+01 -0.7807410E+01 -0.2568960E-01  0.6005671E+00  0.1938723E+01  0.2160128E+00 -0.5603743E+00
 -0.5611260E+01 -0.8397850E+01 -0.2568960E-01  0.5255491E+00  0.1938843E+01  0.1890895E+00 -0.4903540E+00
 -0.4761110E+01 -0.8907410E+01 -0.2568960E-01  0.4455921E+00  0.1938962E+01  0.1603706E+00 -0.4157326E+00
 -0.3865100E+01 -0.9331190E+01 -0.2568960E-01  0.3619011E+00  0.1938889E+01  0.1302252E+00 -0.3376593E+00
 -0.2931870E+01 -0.9665100E+01 -0.2568960E-01  0.2750854E+00  0.1938564E+01  0.9890224E-01 -0.2566911E+00
 -0.1970410E+01 -0.9905930E+01 -0.2568960E-01  0.1845404E+00  0.1938850E+01  0.6639773E-01 -0.1721816E+00
 -0.9899710E+00 -0.1005140E+02 -0.2568960E-01  0.9227637E-01  0.1939610E+01  0.3326650E-01 -0.8607130E-01
  0.1204410E-06 -0.1010000E+02 -0.2568960E-01  0.4744996E-06  0.2597480E+01  0.4059756E-06 -0.2456293E-06
  0.9899760E+00 -0.1005140E+02 -0.2568960E-01  0.9227593E-01 -0.1201992E+01 -0.3326553E-01  0.8607120E-01
  0.1970410E+01 -0.9905930E+01 -0.2568960E-01  0.1845399E+00 -0.1202744E+01 -0.6639716E-01  0.1721812E+00
  0.2931880E+01 -0.9665100E+01 -0.2568960E-01  0.2750854E+00 -0.1203032E+01 -0.9890153E-01  0.2566914E+00
  0.3865100E+01 -0.9331180E+01 -0.2568960E-01  0.3619012E+00 -0.1202705E+01 -0.1302247E+00  0.3376596E+00
  0.4761110E+01 -0.8907410E+01 -0.2568960E-01  0.4455913E+00 -0.1202632E+01 -0.1603697E+00  0.4157321E+00
  0.5611260E+01 -0.8397840E+01 -0.2568960E-01  0.5255497E+00 -0.1202750E+01 -0.1890890E+00  0.4903547E+00
  0.6407370E+01 -0.7807410E+01 -0.2568960E-01  0.6005657E+00 -0.1202870E+01 -0.2160121E+00  0.5603731E+00
  0.7141780E+01 -0.7141780E+01 -0.2568960E-01  0.6687096E+00 -0.1202706E+01 -0.2406249E+00  0.6239168E+00
  0.7807410E+01 -0.6407370E+01 -0.2568960E-01  0.7310710E+00 -0.1202714E+01 -0.2630589E+00  0.6821032E+00
  0.8397840E+01 -0.5611260E+01 -0.2568960E-01  0.7865334E+00 -0.1202749E+01 -0.2829902E+00  0.7338605E+00
  0.8907410E+01 -0.4761110E+01 -0.2568960E-01  0.8346232E+00 -0.1202818E+01 -0.3002385E+00  0.7787507E+00
  0.9331180E+01 -0.3865100E+01 -0.2568960E-01  0.8737087E+00 -0.1202705E+01 -0.3143912E+00  0.8151841E+00
  0.9665100E+01 -0.2931870E+01 -0.2568960E-01  0.9052492E+00 -0.1202753E+01 -0.3256996E+00  0.8446276E+00
  0.9905930E+01 -0.1970410E+01 -0.2568960E-01  0.9277839E+00 -0.1202750E+01 -0.3338107E+00  0.8656520E+00
  0.1005140E+02 -0.9899690E+00 -0.2568960E-01  0.9416086E+00 -0.1202783E+01 -0.3387551E+00  0.8785623E+00
  0.1010000E+02  0.0000000E+00 -0.1027320E+00  0.9415374E+00 -0.1202792E+01 -0.3387219E+00  0.8784989E+00
  0.1005140E+02  0.9899730E+00 -0.1027320E+00  0.9373420E+00 -0.1202848E+01 -0.3371638E+00  0.8746032E+00
  0.9905930E+01  0.1970410E+01 -0.1027320E+00  0.9234884E+00 -0.1202798E+01 -0.3322240E+00  0.8616601E+00
  0.9665100E+01  0.2931880E+01 -0.1027320E+00  0.9011507E+00 -0.1202820E+01 -0.3241695E+00  0.8408250E+00
  0.9331180E+01  0.3865100E+01 -0.1027320E+00  0.8698649E+00 -0.1202791E+01 -0.3129383E+00  0.8116247E+00
  0.8907400E+01  0.4761110E+01 -0.1027320E+00  0.8308392E+00 -0.1202883E+01 -0.2988276E+00  0.7752392E+00
  0.8397840E+01  0.5611260E+01 -0.1027320E+00  0.7828922E+00 -0.1202797E+01 -0.2816453E+00  0.7304767E+00
  0.7807410E+01  0.6407370E+01 -0.1027320E+00  0.7277636E+00 -0.1202780E+01 -0.2618240E+00  0.6790347E+00
  0.7141780E+01  0.7141780E+01 -0.1027320E+00  0.6657675E+00 -0.1202791E+01 -0.2395130E+00  0.6211923E+00
  0.6407370E+01  0.7807410E+01 -0.1027320E+00  0.5978402E+00 -0.1202934E+01 -0.2149964E+00  0.5578436E+00
  0.5611260E+01  0.8397840E+01 -0.1027320E+00  0.5231171E+00 -0.1202799E+01 -0.1881903E+00  0.4880942E+00
  0.4761110E+01  0.8907410E+01 -0.1027320E+00  0.4435777E+00 -0.1202699E+01 -0.1596175E+00  0.4138640E+00
  0.3865100E+01  0.9331180E+01 -0.1027320E+00  0.3603093E+00 -0.1202792E+01 -0.1296227E+00  0.3361855E+00
  0.2931870E+01  0.9665100E+01 -0.1027320E+00  0.2738330E+00 -0.1203093E+01 -0.9843575E-01  0.2555287E+00
  0.1970410E+01  0.9905930E+01 -0.1027320E+00  0.1836859E+00 -0.1202792E+01 -0.6608170E-01  0.1713877E+00
  0.9899730E+00  0.1005140E+02 -0.1027320E+00  0.9186441E-01 -0.1202064E+01 -0.3311102E-01  0.8568974E-01
 -0.4414850E-06  0.1010000E+02 -0.1027320E+00  0.2639096E-06 -0.2501648E+01  0.2116895E-06  0.1575939E-06
 -0.9899740E+00  0.1005140E+02 -0.1027320E+00  0.9186432E-01  0.1939537E+01  0.3311163E-01 -0.8568940E-01
 -0.1970410E+01  0.9905930E+01 -0.1027320E+00  0.1836857E+00  0.1938804E+01  0.6608223E-01 -0.1713873E+00
 -0.2931880E+01  0.9665100E+01 -0.1027320E+00  0.2738335E+00  0.1938502E+01  0.9843638E-01 -0.2555290E+00
 -0.3865100E+01  0.9331180E+01 -0.1027320E+00  0.3603088E+00  0.1938802E+01  0.1296231E+00 -0.3361849E+00
 -0.4761110E+01  0.8907400E+01 -0.1027320E+00  0.4435782E+00  0.1938896E+01  0.1596184E+00 -0.4138643E+00
 -0.5611260E+01  0.8397840E+01 -0.1027320E+00  0.5231171E+00  0.1938795E+01  0.1881907E+00 -0.4880941E+00
 -0.6407370E+01  0.7807410E+01 -0.1027320E+00  0.5978405E+00  0.1938660E+01  0.2149972E+00 -0.5578437E+00
 -0.7141780E+01  0.7141780E+01 -0.1027320E+00  0.6657682E+00  0.1938802E+01  0.2395137E+00 -0.6211928E+00
 -0.7807410E+01  0.6407370E+01 -0.1027320E+00  0.7277637E+00  0.1938814E+01  0.2618250E+00 -0.6790344E+00
 -0.8397840E+01  0.5611260E+01 -0.1027320E+00  0.7828925E+00  0.1938795E+01  0.2816450E+00 -0.7304770E+00
 -0.8907410E+01  0.4761110E+01 -0.1027320E+00  0.8308401E+00  0.1938711E+01  0.2988285E+00 -0.7752398E+00
 -0.9331180E+01  0.3865100E+01 -0.1027320E+00  0.8698640E+00  0.1938802E+01  0.3129385E+00 -0.8116236E+00
 -0.9665100E+01  0.2931880E+01 -0.1027320E+00  0.9011504E+00  0.1938775E+01  0.3241710E+00 -0.8408241E+00
 -0.9905930E+01  0.1970410E+01 -0.1027320E+00  0.9234884E+00  0.1938795E+01  0.3322241E+00 -0.8616599E+00
 -0.1005140E+02  0.9899730E+00 -0.1027320E+00  0.9373421E+00  0.1938745E+01  0.3371644E+00 -0.8746030E+00
 -0.1010000E+02 -0.8829700E-06 -0.1027320E+00  0.9415369E+00  0.1938801E+01  0.3387225E+00 -0.8784981E+00
 -0.1005140E+02 -0.9899740E+00 -0.1027320E+00  0.9373426E+00  0.1938745E+01  0.3371639E+00 -0.8746037E+00
 -0.9905930E+01 -0.1970410E+01 -0.1027320E+00  0.9234886E+00  0.1938796E+01  0.3322245E+00 -0.8616601E+00
 -0.9665100E+01 -0.2931880E+01 -0.1027320E+00  0.9011498E+00  0.1938774E+01  0.3241702E+00 -0.8408238E+00
 -0.9331180E+01 -0.3865100E+01 -0.1027320E+00  0.8698658E+00  0.1938803E+01  0.3129393E+00 -0.8116252E+00
 -0.8907400E+01 -0.4761110E+01 -0.1027320E+00  0.8308399E+00  0.1938711E+01  0.2988285E+00 -0.7752396E+00
 -0.8397840E+01 -0.5611260E+01 -0.1027320E+00  0.7828933E+00  0.1938796E+01  0.2816459E+00 -0.7304776E+00
 -0.7807400E+01 -0.6407370E+01 -0.1027320E+00  0.7277637E+00  0.1938814E+01  0.2618247E+00 -0.6790344E+00
 -0.7141780E+01 -0.7141780E+01 -0.1027320E+00  0.6657675E+00  0.1938802E+01  0.2395136E+00 -0.6211920E+00
 -0.6407370E+01 -0.7807410E+01 -0.1027320E+00  0.5978407E+00  0.1938659E+01  0.2149968E+00 -0.5578440E+00
 -0.5611260E+01 -0.8397850E+01 -0.1027320E+00  0.5231163E+00  0.1938795E+01  0.1881905E+00 -0.4880932E+00
 -0.4761110E+01 -0.8907410E+01 -0.1027320E+00  0.4435785E+00  0.1938895E+01  0.1596183E+00 -0.4138646E+00
 -0.3865100E+01 -0.9331190E+01 -0.1027320E+00  0.3603092E+00  0.1938803E+01  0.1296235E+00 -0.3361852E+00
 -0.2931870E+01 -0.9665100E+01 -0.1027320E+00  0.2738334E+00  0.1938503E+01  0.9843653E-01 -0.2555288E+00
 -0.1970410E+01 -0.9905930E+01 -0.1027320E+00  0.1836861E+00  0.1938803E+01  0.6608226E-01 -0.1713876E+00
 -0.9899710E+00 -0.1005140E+02 -0.1027320E+00  0.9186472E-01  0.1939539E+01  0.3311203E-01 -0.8568968E-01
  0.1204410E-06 -0.1010000E+02 -0.1027320E+00  0.4098500E-06  0.2663736E+01  0.3639396E-06 -0.1884807E-06
  0.9899760E+00 -0.1005140E+02 -0.1027320E+00  0.9186424E-01 -0.1202063E+01 -0.3311098E-01  0.8568957E-01
  0.1970410E+01 -0.9905930E+01 -0.1027320E+00  0.1836855E+00 -0.1202793E+01 -0.6608150E-01  0.1713873E+00
  0.2931880E+01 -0.9665100E+01 -0.1027320E+00  0.2738334E+00 -0.1203093E+01 -0.9843569E-01  0.2555292E+00
  0.3865100E+01 -0.9331180E+01 -0.1027320E+00  0.3603089E+00 -0.1202792E+01 -0.1296224E+00  0.3361852E+00
  0.4761110E+01 -0.8907410E+01 -0.1027320E+00  0.4435777E+00 -0.1202698E+01 -0.1596176E+00  0.4138640E+00
  0.5611260E+01 -0.8397840E+01 -0.1027320E+00  0.5231166E+00 -0.1202799E+01 -0.1881900E+00  0.4880938E+00
  0.6407370E+01 -0.7807410E+01 -0.1027320E+00  0.5978402E+00 -0.1202934E+01 -0.2149962E+00  0.5578437E+00
  0.7141780E+01 -0.7141780E+01 -0.1027320E+00  0.6657673E+00 -0.1202792E+01 -0.2395125E+00  0.6211923E+00
  0.7807410E+01 -0.6407370E+01 -0.1027320E+00  0.7277631E+00 -0.1202780E+01 -0.2618241E+00  0.6790340E+00
  0.8397840E+01 -0.5611260E+01 -0.1027320E+00  0.7828916E+00 -0.1202796E+01 -0.2816451E+00  0.7304760E+00
  0.8907410E+01 -0.4761110E+01 -0.1027320E+00  0.8308390E+00 -0.1202883E+01 -0.2988275E+00  0.7752390E+00
  0.9331180E+01 -0.3865100E+01 -0.1027320E+00  0.8698643E+00 -0.1202792E+01 -0.3129376E+00  0.8116243E+00
  0.9665100E+01 -0.2931870E+01 -0.1027320E+00  0.9011500E+00 -0.1202819E+01 -0.3241700E+00  0.8408241E+00
  0.9905930E+01 -0.1970410E+01 -0.1027320E+00  0.9234890E+00 -0.1202798E+01 -0.3322236E+00  0.8616608E+00
  0.1005140E+02 -0.9899690E+00 -0.1027320E+00  0.9373417E+00 -0.1202848E+01 -0.3371636E+00  0.8746029E+00
  0.1010000E+02  0.0000000E+00 -0.2310450E+00  0.9347905E+00 -0.1202988E+01 -0.3361236E+00  0.8722696E+00
  0.1005140E+02  0.9899730E+00 -0.2310450E+00  0.9303150E+00 -0.1202989E+01 -0.3345140E+00  0.8680936E+00
  0.9905930E+01  0.1970410E+01 -0.2310450E+00  0.9166273E+00 -0.1202949E+01 -0.3296263E+00  0.8553082E+00
  0.9665100E+01  0.2931880E+01 -0.2310450E+00  0.8944029E+00 -0.1202961E+01 -0.3216243E+00  0.8345744E+00
  0.9331180E+01  0.3865100E+01 -0.2310450E+00  0.8636330E+00 -0.1202988E+01 -0.3105377E+00  0.8058712E+00
  0.8907400E+01  0.4761110E+01 -0.2310450E+00  0.8246033E+00 -0.1203022E+01 -0.2964776E+00  0.7694619E+00
  0.8397840E+01  0.5611260E+01 -0.2310450E+00  0.7770758E+00 -0.1202948E+01 -0.2794433E+00  0.7250918E+00
  0.7807410E+01  0.6407370E+01 -0.2310450E+00  0.7223213E+00 -0.1202923E+01 -0.2597698E+00  0.6739938E+00
  0.7141780E+01  0.7141780E+01 -0.2310450E+00  0.6609982E+00 -0.1202988E+01 -0.2376757E+00  0.6167892E+00
  0.6407370E+01  0.7807410E+01 -0.2310450E+00  0.5933454E+00 -0.1203071E+01 -0.2133042E+00  0.5536787E+00
  0.5611260E+01  0.8397840E+01 -0.2310450E+00  0.5192306E+00 -0.1202949E+01 -0.1867192E+00  0.4844960E+00
  0.4761110E+01  0.8907410E+01 -0.2310450E+00  0.4402710E+00 -0.1202845E+01 -0.1583673E+00  0.4108020E+00
  0.3865100E+01  0.9331180E+01 -0.2310450E+00  0.3577272E+00 -0.1202987E+01 -0.1286287E+00  0.3338014E+00
  0.2931870E+01  0.9665100E+01 -0.2310450E+00  0.2717620E+00 -0.1203223E+01 -0.9765811E-01  0.2536089E+00
  0.1970410E+01  0.9905930E+01 -0.2310450E+00  0.1823212E+00 -0.1202943E+01 -0.6556518E-01  0.1701241E+00
  0.9899730E+00  0.1005140E+02 -0.2310450E+00  0.9119534E-01 -0.1202237E+01 -0.3285513E-01  0.8507133E-01
 -0.4414850E-06  0.1010000E+02 -0.2310450E+00  0.1604580E-06 -0.2486519E+01  0.1272437E-06  0.9775381E-07
 -0.9899740E+00  0.1005140E+02 -0.2310450E+00  0.9119542E-01  0.1939361E+01  0.3285564E-01 -0.8507121E-01
 -0.1970410E+01  0.9905930E+01 -0.2310450E+00  0.1823212E+00  0.1938653E+01  0.6556572E-01 -0.1701240E+00
 -0.2931880E+01  0.9665100E+01 -0.2310450E+00  0.2717623E+00  0.1938372E+01  0.9765898E-01 -0.2536089E+00
 -0.3865100E+01  0.9331180E+01 -0.2310450E+00  0.3577274E+00  0.1938607E+01  0.1286291E+00 -0.3338015E+00
 -0.4761110E+01  0.8907400E+01 -0.2310450E+00  0.4402715E+00  0.1938749E+01  0.1583684E+00 -0.4108022E+00
 -0.5611260E+01  0.8397840E+01 -0.2310450E+00  0.5192304E+00  0.1938645E+01  0.1867197E+00 -0.4844955E+00
 -0.6407370E+01  0.7807410E+01 -0.2310450E+00  0.5933451E+00  0.1938523E+01  0.2133044E+00 -0.5536783E+00
 -0.7141780E+01  0.7141780E+01 -0.2310450E+00  0.6609983E+00  0.1938605E+01  0.2376761E+00 -0.6167891E+00
 -0.7807410E+01  0.6407370E+01 -0.2310450E+00  0.7223217E+00  0.1938671E+01  0.2597707E+00 -0.6739939E+00
 -0.8397840E+01  0.5611260E+01 -0.2310450E+00  0.7770757E+00  0.1938646E+01  0.2794439E+00 -0.7250915E+00
 -0.8907410E+01  0.4761110E+01 -0.2310450E+00  0.8246031E+00  0.1938572E+01  0.2964783E+00 -0.7694615E+00
 -0.9331180E+01  0.3865100E+01 -0.2310450E+00  0.8636327E+00  0.1938606E+01  0.3105387E+00 -0.8058704E+00
 -0.9665100E+01  0.2931880E+01 -0.2310450E+00  0.8944024E+00  0.1938632E+01  0.3216245E+00 -0.8345738E+00
 -0.9905930E+01  0.1970410E+01 -0.2310450E+00  0.9166279E+00  0.1938645E+01  0.3296271E+00 -0.8553085E+00
 -0.1005140E+02  0.9899730E+00 -0.2310450E+00  0.9303154E+00  0.1938605E+01  0.3345148E+00 -0.8680937E+00
 -0.1010000E+02 -0.8829700E-06 -0.2310450E+00  0.9347914E+00  0.1938605E+01  0.3361242E+00 -0.8722703E+00
 -0.1005140E+02 -0.9899740E+00 -0.2310450E+00  0.9303142E+00  0.1938605E+01  0.3345146E+00 -0.8680924E+00
 -0.9905930E+01 -0.1970410E+01 -0.2310450E+00  0.9166278E+00  0.1938645E+01  0.3296273E+00 -0.8553084E+00
 -0.9665100E+01 -0.2931880E+01 -0.2310450E+00  0.8944014E+00  0.1938633E+01  0.3216249E+00 -0.8345725E+00
 -0.9331180E+01 -0.3865100E+01 -0.2310450E+00  0.8636328E+00  0.1938606E+01  0.3105386E+00 -0.8058706E+00
 -0.8907400E+01 -0.4761110E+01 -0.2310450E+00  0.8246036E+00  0.1938572E+01  0.2964783E+00 -0.7694619E+00
 -0.8397840E+01 -0.5611260E+01 -0.2310450E+00  0.7770757E+00  0.1938646E+01  0.2794437E+00 -0.7250916E+00
 -0.7807400E+01 -0.6407370E+01 -0.2310450E+00  0.7223216E+00  0.1938670E+01  0.2597702E+00 -0.6739941E+00
 -0.7141780E+01 -0.7141780E+01 -0.2310450E+00  0.6609977E+00  0.1938606E+01  0.2376763E+00 -0.6167884E+00
 -0.6407370E+01 -0.7807410E+01 -0.2310450E+00  0.5933449E+00  0.1938523E+01  0.2133047E+00 -0.5536780E+00
 -0.5611260E+01 -0.8397850E+01 -0.2310450E+00  0.5192299E+00  0.1938645E+01  0.1867194E+00 -0.4844951E+00
 -0.4761110E+01 -0.8907410E+01 -0.2310450E+00  0.4402714E+00  0.1938748E+01  0.1583680E+00 -0.4108022E+00
 -0.3865100E+01 -0.9331190E+01 -0.2310450E+00  0.3577271E+00  0.1938607E+01  0.1286293E+00 -0.3338012E+00
 -0.2931870E+01 -0.9665100E+01 -0.2310450E+00  0.2717618E+00  0.1938372E+01  0.9765881E-01 -0.2536084E+00
 -0.1970410E+01 -0.9905930E+01 -0.2310450E+00  0.1823214E+00  0.1938653E+01  0.6556568E-01 -0.1701242E+00
 -0.9899710E+00 -0.1005140E+02 -0.2310450E+00  0.9119561E-01  0.1939362E+01  0.3285573E-01 -0.8507138E-01
  0.1204410E-06 -0.1010000E+02 -0.2310450E+00  0.2775441E-06  0.2383391E+01  0.2015175E-06 -0.1908440E-06
  0.9899760E+00 -0.1005140E+02 -0.2310450E+00  0.9119529E-01 -0.1202239E+01 -0.3285489E-01  0.8507137E-01
  0.1970410E+01 -0.9905930E+01 -0.2310450E+00  0.1823208E+00 -0.1202943E+01 -0.6556500E-01  0.1701238E+00
  0.2931880E+01 -0.9665100E+01 -0.2310450E+00  0.2717620E+00 -0.1203223E+01 -0.9765818E-01  0.2536089E+00
  0.3865100E+01 -0.9331180E+01 -0.2310450E+00  0.3577272E+00 -0.1202987E+01 -0.1286287E+00  0.3338014E+00
  0.4761110E+01 -0.8907410E+01 -0.2310450E+00  0.4402708E+00 -0.1202846E+01 -0.1583671E+00  0.4108019E+00
  0.5611260E+01 -0.8397840E+01 -0.2310450E+00  0.5192295E+00 -0.1202949E+01 -0.1867187E+00  0.4844950E+00
  0.6407370E+01 -0.7807410E+01 -0.2310450E+00  0.5933440E+00 -0.1203070E+01 -0.2133038E+00  0.5536774E+00
  0.7141780E+01 -0.7141780E+01 -0.2310450E+00  0.6609972E+00 -0.1202988E+01 -0.2376753E+00  0.6167882E+00
  0.7807410E+01 -0.6407370E+01 -0.2310450E+00  0.7223206E+00 -0.1202923E+01 -0.2597697E+00  0.6739931E+00
  0.8397840E+01 -0.5611260E+01 -0.2310450E+00  0.7770748E+00 -0.1202947E+01 -0.2794432E+00  0.7250908E+00
  0.8907410E+01 -0.4761110E+01 -0.2310450E+00  0.8246025E+00 -0.1203021E+01 -0.2964777E+00  0.7694610E+00
  0.9331180E+01 -0.3865100E+01 -0.2310450E+00  0.8636322E+00 -0.1202988E+01 -0.3105376E+00  0.8058703E+00
  0.9665100E+01 -0.2931870E+01 -0.2310450E+00  0.8944017E+00 -0.1202960E+01 -0.3216242E+00  0.8345731E+00
  0.9905930E+01 -0.1970410E+01 -0.2310450E+00  0.9166265E+00 -0.1202948E+01 -0.3296268E+00  0.8553071E+00
  0.1005140E+02 -0.9899690E+00 -0.2310450E+00  0.9303139E+00 -0.1202988E+01 -0.3345142E+00  0.8680924E+00
  0.1010000E+02  0.0000000E+00 -0.4105000E+00  0.9252882E+00 -0.1203288E+01 -0.3324476E+00  0.8635027E+00
  0.1005140E+02  0.9899730E+00 -0.4105000E+00  0.9204915E+00 -0.1203221E+01 -0.3307818E+00  0.8590041E+00
  0.9905930E+01  0.1970410E+01 -0.4105000E+00  0.9070975E+00 -0.1203206E+01 -0.3259818E+00  0.8464997E+00
  0.9665100E+01  0.2931880E+01 -0.4105000E+00  0.8849699E+00 -0.1203195E+01 -0.3180387E+00  0.8258470E+00
  0.9331180E+01  0.3865100E+01 -0.4105000E+00  0.8548537E+00 -0.1203289E+01 -0.3071408E+00  0.7977715E+00
  0.8907400E+01  0.4761110E+01 -0.4105000E+00  0.8158849E+00 -0.1203252E+01 -0.2931677E+00  0.7613940E+00
  0.8397840E+01  0.5611260E+01 -0.4105000E+00  0.7689961E+00 -0.1203206E+01 -0.2763527E+00  0.7176240E+00
  0.7807410E+01  0.6407370E+01 -0.4105000E+00  0.7147167E+00 -0.1203160E+01 -0.2568766E+00  0.6669590E+00
  0.7141780E+01  0.7141780E+01 -0.4105000E+00  0.6542785E+00 -0.1203290E+01 -0.2350756E+00  0.6105897E+00
  0.6407370E+01  0.7807410E+01 -0.4105000E+00  0.5870576E+00 -0.1203297E+01 -0.2109195E+00  0.5478591E+00
  0.5611260E+01  0.8397840E+01 -0.4105000E+00  0.5138326E+00 -0.1203208E+01 -0.1846540E+00  0.4795069E+00
  0.4761110E+01  0.8907410E+01 -0.4105000E+00  0.4356518E+00 -0.1203088E+01 -0.1566071E+00  0.4065301E+00
  0.3865100E+01  0.9331180E+01 -0.4105000E+00  0.3540915E+00 -0.1203288E+01 -0.1272219E+00  0.3304472E+00
  0.2931870E+01  0.9665100E+01 -0.4105000E+00  0.2688636E+00 -0.1203441E+01 -0.9656202E-01  0.2509251E+00
  0.1970410E+01  0.9905930E+01 -0.4105000E+00  0.1804256E+00 -0.1203199E+01 -0.6484040E-01  0.1683720E+00
  0.9899730E+00  0.1005140E+02 -0.4105000E+00  0.9026369E-01 -0.1202525E+01 -0.3249517E-01  0.8421163E-01
 -0.4414850E-06  0.1010000E+02 -0.4105000E+00  0.2914323E-06 -0.2375780E+01  0.2100701E-06  0.2019984E-06
 -0.9899740E+00  0.1005140E+02 -0.4105000E+00  0.9026372E-01  0.1939075E+01  0.3249583E-01 -0.8421140E-01
 -0.1970410E+01  0.9905930E+01 -0.4105000E+00  0.1804257E+00  0.1938395E+01  0.6484061E-01 -0.1683720E+00
 -0.2931880E+01  0.9665100E+01 -0.4105000E+00  0.2688644E+00  0.1938155E+01  0.9656317E-01 -0.2509255E+00
 -0.3865100E+01  0.9331180E+01 -0.4105000E+00  0.3540910E+00  0.1938306E+01  0.1272222E+00 -0.3304467E+00
 -0.4761110E+01  0.8907400E+01 -0.4105000E+00  0.4356523E+00  0.1938505E+01  0.1566076E+00 -0.4065304E+00
 -0.5611260E+01  0.8397840E+01 -0.4105000E+00  0.5138325E+00  0.1938386E+01  0.1846547E+00 -0.4795065E+00
 -0.6407370E+01  0.7807410E+01 -0.4105000E+00  0.5870579E+00  0.1938296E+01  0.2109202E+00 -0.5478591E+00
 -0.7141780E+01  0.7141780E+01 -0.4105000E+00  0.6542785E+00  0.1938305E+01  0.2350765E+00 -0.6105894E+00