 VARIABLES="X" "Y" "Z" "abs(eta) (m)" "angle(phi) (rad)" "PRE1" "PRE2"
ZONE N=   3200 ,E =    3136 ,F=FEPOINT,ET=QUADRILATERAL
  0.1100000E+02  0.0000000E+00  0.0000000E+00  0.1237383E+00 -0.2527570E+01  0.1011359E+00  0.7129311E-01
  0.1094700E+02  0.1078190E+01  0.0000000E+00  0.1309966E+00 -0.2905409E+01  0.1273599E+00  0.3065243E-01
  0.1078860E+02  0.2145990E+01  0.0000000E+00  0.1551148E+00  0.3093945E+01  0.1549387E+00 -0.7388059E-02
  0.1052630E+02  0.3193130E+01  0.0000000E+00  0.1881343E+00  0.2914721E+01  0.1833133E+00 -0.4231721E-01
  0.1016270E+02  0.4209520E+01  0.0000000E+00  0.2245749E+00  0.2804433E+01  0.2119308E+00 -0.7429124E-01
  0.9701130E+01  0.5185360E+01  0.0000000E+00  0.2614438E+00  0.2734009E+01  0.2400267E+00 -0.1036343E+00
  0.9146170E+01  0.6111270E+01  0.0000000E+00  0.2962886E+00  0.2689880E+01  0.2665711E+00 -0.1293319E+00
  0.8503110E+01  0.6978330E+01  0.0000000E+00  0.3276882E+00  0.2662790E+01  0.2908387E+00 -0.1509714E+00
  0.7778170E+01  0.7778170E+01  0.0000000E+00  0.3552777E+00  0.2645678E+01  0.3124788E+00 -0.1690540E+00
  0.6978330E+01  0.8503110E+01  0.0000000E+00  0.3790731E+00  0.2633601E+01  0.3312049E+00 -0.1843901E+00
  0.6111270E+01  0.9146170E+01  0.0000000E+00  0.3976620E+00  0.2626065E+01  0.3459789E+00 -0.1960449E+00
  0.5185360E+01  0.9701130E+01  0.0000000E+00  0.4103037E+00  0.2622345E+01  0.3562227E+00 -0.2036037E+00
  0.4209520E+01  0.1016270E+02  0.0000000E+00  0.4173087E+00  0.2620823E+01  0.3619889E+00 -0.2076309E+00
  0.3193130E+01  0.1052630E+02  0.0000000E+00  0.4194919E+00  0.2619793E+01  0.3636674E+00 -0.2090921E+00
  0.2145990E+01  0.1078860E+02  0.0000000E+00  0.4158233E+00  0.2620458E+01  0.3606247E+00 -0.2070237E+00
  0.1078190E+01  0.1094700E+02  0.0000000E+00  0.4058483E+00  0.2623747E+01  0.3526366E+00 -0.2008987E+00
 -0.4808250E-06  0.1100000E+02  0.0000000E+00  0.3901968E+00  0.2629574E+01  0.3401569E+00 -0.1911724E+00
 -0.1078190E+01  0.1094700E+02  0.0000000E+00  0.3701465E+00  0.2637505E+01  0.3241061E+00 -0.1787839E+00
 -0.2145990E+01  0.1078860E+02  0.0000000E+00  0.3453011E+00  0.2650557E+01  0.3045021E+00 -0.1628230E+00
 -0.3193130E+01  0.1052630E+02  0.0000000E+00  0.3156549E+00  0.2672402E+01  0.2815436E+00 -0.1427279E+00
 -0.4209520E+01  0.1016270E+02  0.0000000E+00  0.2821990E+00  0.2706706E+01  0.2559313E+00 -0.1188925E+00
 -0.5185370E+01  0.9701130E+01  0.0000000E+00  0.2466728E+00  0.2758112E+01  0.2287565E+00 -0.9229273E-01
 -0.6111270E+01  0.9146160E+01  0.0000000E+00  0.2101091E+00  0.2840205E+01  0.2006386E+00 -0.6237003E-01
 -0.6978330E+01  0.8503120E+01  0.0000000E+00  0.1744819E+00  0.2975772E+01  0.1720885E+00 -0.2880022E-01
 -0.7778170E+01  0.7778170E+01  0.0000000E+00  0.1439919E+00 -0.3086405E+01  0.1437727E+00  0.7942596E-02
 -0.8503120E+01  0.6978330E+01  0.0000000E+00  0.1255330E+00 -0.2759525E+01  0.1164815E+00  0.4680368E-01
 -0.9146170E+01  0.6111270E+01  0.0000000E+00  0.1264025E+00 -0.2375017E+01  0.9104644E-01  0.8768199E-01
 -0.9701130E+01  0.5185360E+01  0.0000000E+00  0.1471131E+00 -0.2051030E+01  0.6796426E-01  0.1304727E+00
 -0.1016270E+02  0.4209520E+01  0.0000000E+00  0.1810082E+00 -0.1836604E+01  0.4754874E-01  0.1746513E+00
 -0.1052630E+02  0.3193130E+01  0.0000000E+00  0.2213132E+00 -0.1706486E+01  0.2993786E-01  0.2192790E+00
 -0.1078860E+02  0.2145990E+01  0.0000000E+00  0.2640903E+00 -0.1630038E+01  0.1563596E-01  0.2636270E+00
 -0.1094700E+02  0.1078190E+01  0.0000000E+00  0.3072896E+00 -0.1586403E+01  0.4795652E-02  0.3072521E+00
 -0.1100000E+02 -0.9616510E-06  0.0000000E+00  0.3498477E+00 -0.1562968E+01 -0.2738727E-02  0.3498369E+00
 -0.1094700E+02 -0.1078190E+01  0.0000000E+00  0.3910111E+00 -0.1551749E+01 -0.7447408E-02  0.3909401E+00
 -0.1078860E+02 -0.2146000E+01  0.0000000E+00  0.4296458E+00 -0.1548853E+01 -0.9426969E-02  0.4295424E+00
 -0.1052630E+02 -0.3193130E+01  0.0000000E+00  0.4652336E+00 -0.1551607E+01 -0.8926737E-02  0.4651480E+00
 -0.1016270E+02 -0.4209520E+01  0.0000000E+00  0.4978926E+00 -0.1558013E+01 -0.6364409E-02  0.4978519E+00
 -0.9701130E+01 -0.5185360E+01  0.0000000E+00  0.5279100E+00 -0.1566247E+01 -0.2401488E-02  0.5279045E+00
 -0.9146160E+01 -0.6111270E+01  0.0000000E+00  0.5543142E+00 -0.1575161E+01  0.2419308E-02  0.5543089E+00
 -0.8503110E+01 -0.6978330E+01  0.0000000E+00  0.5767059E+00 -0.1584092E+01  0.7667312E-02  0.5766550E+00
 -0.7778170E+01 -0.7778180E+01  0.0000000E+00  0.5955305E+00 -0.1592644E+01  0.1300986E-01  0.5953884E+00
 -0.6978330E+01 -0.8503110E+01  0.0000000E+00  0.6115215E+00 -0.1600358E+01  0.1807468E-01  0.6112544E+00
 -0.6111270E+01 -0.9146170E+01  0.0000000E+00  0.6237326E+00 -0.1606495E+01  0.2226187E-01  0.6233352E+00
 -0.5185360E+01 -0.9701130E+01  0.0000000E+00  0.6317314E+00 -0.1610747E+01  0.2523154E-01  0.6312273E+00
 -0.4209510E+01 -0.1016270E+02  0.0000000E+00  0.6360270E+00 -0.1613158E+01  0.2693518E-01  0.6354564E+00
 -0.3193130E+01 -0.1052630E+02  0.0000000E+00  0.6375369E+00 -0.1613945E+01  0.2750041E-01  0.6369435E+00
 -0.2145990E+01 -0.1078860E+02  0.0000000E+00  0.6353194E+00 -0.1612701E+01  0.2661501E-01  0.6347616E+00
 -0.1078190E+01 -0.1094700E+02  0.0000000E+00  0.6288771E+00 -0.1609291E+01  0.2420266E-01  0.6284112E+00
  0.1311740E-06 -0.1100000E+02  0.0000000E+00  0.6186717E+00 -0.1603957E+01  0.2051155E-01  0.6183316E+00
  0.1078190E+01 -0.1094700E+02  0.0000000E+00  0.6056520E+00 -0.1597322E+01  0.1606312E-01  0.6054390E+00
  0.2145990E+01 -0.1078860E+02  0.0000000E+00  0.5889829E+00 -0.1589531E+01  0.1103383E-01  0.5888795E+00
  0.3193140E+01 -0.1052630E+02  0.0000000E+00  0.5681711E+00 -0.1580749E+01  0.5654577E-02  0.5681430E+00
  0.4209520E+01 -0.1016270E+02  0.0000000E+00  0.5436192E+00 -0.1571435E+01  0.3473038E-03  0.5436190E+00
  0.5185360E+01 -0.9701130E+01  0.0000000E+00  0.5162862E+00 -0.1562524E+01 -0.4271009E-02  0.5162686E+00
  0.6111270E+01 -0.9146160E+01  0.0000000E+00  0.4856630E+00 -0.1555125E+01 -0.7610753E-02  0.4856033E+00
  0.6978330E+01 -0.8503110E+01  0.0000000E+00  0.4514571E+00 -0.1550307E+01 -0.9249616E-02  0.4513624E+00
  0.7778180E+01 -0.7778170E+01  0.0000000E+00  0.4141052E+00 -0.1549470E+01 -0.8830796E-02  0.4140110E+00
  0.8503120E+01 -0.6978320E+01  0.0000000E+00  0.3746282E+00 -0.1554667E+01 -0.6042359E-02  0.3745795E+00
  0.9146170E+01 -0.6111270E+01  0.0000000E+00  0.3332394E+00 -0.1570001E+01 -0.2650538E-03  0.3332393E+00
  0.9701130E+01 -0.5185360E+01  0.0000000E+00  0.2902856E+00 -0.1601117E+01  0.8800230E-02  0.2901521E+00
  0.1016270E+02 -0.4209520E+01  0.0000000E+00  0.2467238E+00 -0.1656728E+01  0.2117528E-01  0.2458134E+00
  0.1052630E+02 -0.3193130E+01  0.0000000E+00  0.2044188E+00 -0.1750744E+01  0.3658648E-01  0.2011180E+00
  0.1078860E+02 -0.2145990E+01  0.0000000E+00  0.1662694E+00 -0.1909056E+01  0.5517576E-01  0.1568475E+00
  0.1094700E+02 -0.1078180E+01  0.0000000E+00  0.1370405E+00 -0.2165882E+01  0.7682215E-01  0.1134832E+00
  0.1100000E+02  0.0000000E+00 -0.2568960E-01  0.1235288E+00 -0.2527802E+01  0.1009811E+00  0.7114893E-01
  0.1094700E+02  0.1078190E+01 -0.2568960E-01  0.1307935E+00 -0.2905564E+01  0.1271671E+00  0.3058523E-01
  0.1078860E+02  0.2145990E+01 -0.2568960E-01  0.1548810E+00  0.3093923E+01  0.1547050E+00 -0.7380375E-02
  0.1052630E+02  0.3193130E+01 -0.2568960E-01  0.1878562E+00  0.2914604E+01  0.1830374E+00 -0.4227597E-01
  0.1016270E+02  0.4209520E+01 -0.2568960E-01  0.2242499E+00  0.2804265E+01  0.2116118E+00 -0.7421915E-01
  0.9701130E+01  0.5185360E+01 -0.2568960E-01  0.2610484E+00  0.2733943E+01  0.2396568E+00 -0.1034933E+00
  0.9146170E+01  0.6111270E+01 -0.2568960E-01  0.2958227E+00  0.2689895E+01  0.2661538E+00 -0.1291248E+00
  0.8503110E+01  0.6978330E+01 -0.2568960E-01  0.3271963E+00  0.2662742E+01  0.2903950E+00 -0.1507587E+00
  0.7778170E+01  0.7778170E+01 -0.2568960E-01  0.3547639E+00  0.2645585E+01  0.3120112E+00 -0.1688385E+00
  0.6978330E+01  0.8503110E+01 -0.2568960E-01  0.3784963E+00  0.2633560E+01  0.3306935E+00 -0.1841231E+00
  0.6111270E+01  0.9146170E+01 -0.2568960E-01  0.3970274E+00  0.2626076E+01  0.3454289E+00 -0.1957284E+00
  0.5185360E+01  0.9701130E+01 -0.2568960E-01  0.4096813E+00  0.2622310E+01  0.3556753E+00 -0.2033073E+00
  0.4209520E+01  0.1016270E+02 -0.2568960E-01  0.4167031E+00  0.2620749E+01  0.3614483E+00 -0.2073563E+00
  0.3193130E+01  0.1052630E+02 -0.2568960E-01  0.4188544E+00  0.2619761E+01  0.3631081E+00 -0.2087858E+00
  0.2145990E+01  0.1078860E+02 -0.2568960E-01  0.4151594E+00  0.2620469E+01  0.3600514E+00 -0.2066890E+00
  0.1078190E+01  0.1094700E+02 -0.2568960E-01  0.4052311E+00  0.2623710E+01  0.3520930E+00 -0.2006061E+00
 -0.4808250E-06  0.1100000E+02 -0.2568960E-01  0.3896321E+00  0.2629493E+01  0.3396491E+00 -0.1909231E+00
 -0.1078190E+01  0.1094700E+02 -0.2568960E-01  0.3695885E+00  0.2637466E+01  0.3236105E+00 -0.1785271E+00
 -0.2145990E+01  0.1078860E+02 -0.2568960E-01  0.3447539E+00  0.2650570E+01  0.3040216E+00 -0.1625611E+00
 -0.3193130E+01  0.1052630E+02 -0.2568960E-01  0.3151773E+00  0.2672353E+01  0.2811105E+00 -0.1425258E+00
 -0.4209520E+01  0.1016270E+02 -0.2568960E-01  0.2817919E+00  0.2706580E+01  0.2555471E+00 -0.1187533E+00
 -0.5185370E+01  0.9701130E+01 -0.2568960E-01  0.2463063E+00  0.2758036E+01  0.2284096E+00 -0.9217294E-01
 -0.6111270E+01  0.9146160E+01 -0.2568960E-01  0.2097848E+00  0.2840211E+01  0.2003292E+00 -0.6227256E-01
 -0.6978330E+01  0.8503120E+01 -0.2568960E-01  0.1742183E+00  0.2975663E+01  0.1718255E+00 -0.2877543E-01
 -0.7778170E+01  0.7778170E+01 -0.2568960E-01  0.1437714E+00 -0.3086671E+01  0.1435546E+00  0.7892150E-02
 -0.8503120E+01  0.6978330E+01 -0.2568960E-01  0.1253365E+00 -0.2759737E+01  0.1163091E+00  0.4670581E-01
 -0.9146170E+01  0.6111270E+01 -0.2568960E-01  0.1262081E+00 -0.2375153E+01  0.9091838E-01  0.8753473E-01
 -0.9701130E+01  0.5185360E+01 -0.2568960E-01  0.1468712E+00 -0.2051130E+01  0.6786548E-01  0.1302514E+00
 -0.1016270E+02  0.4209520E+01 -0.2568960E-01  0.1807032E+00 -0.1836643E+01  0.4747551E-01  0.1743551E+00
 -0.1052630E+02  0.3193130E+01 -0.2568960E-01  0.2209464E+00 -0.1706543E+01  0.2990076E-01  0.2189138E+00
 -0.1078860E+02  0.2145990E+01 -0.2568960E-01  0.2636570E+00 -0.1630114E+01  0.1563029E-01  0.2631933E+00
 -0.1094700E+02  0.1078190E+01 -0.2568960E-01  0.3067954E+00 -0.1586440E+01  0.4799161E-02  0.3067579E+00
 -0.1100000E+02 -0.9616510E-06 -0.2568960E-01  0.3492935E+00 -0.1562978E+01 -0.2730719E-02  0.3492828E+00
 -0.1094700E+02 -0.1078190E+01 -0.2568960E-01  0.3903804E+00 -0.1551776E+01 -0.7424773E-02  0.3903098E+00
 -0.1078860E+02 -0.2146000E+01 -0.2568960E-01  0.4289407E+00 -0.1548895E+01 -0.9393731E-02  0.4288379E+00
 -0.1052630E+02 -0.3193130E+01 -0.2568960E-01  0.4644927E+00 -0.1551640E+01 -0.8897379E-02  0.4644075E+00
 -0.1016270E+02 -0.4209520E+01 -0.2568960E-01  0.4971188E+00 -0.1558040E+01 -0.6341301E-02  0.4970784E+00
 -0.9701130E+01 -0.5185360E+01 -0.2568960E-01  0.5270677E+00 -0.1566274E+01 -0.2383668E-02  0.5270623E+00
 -0.9146160E+01 -0.6111270E+01 -0.2568960E-01  0.5534061E+00 -0.1575188E+01  0.2430396E-02  0.5534008E+00
 -0.8503110E+01 -0.6978330E+01 -0.2568960E-01  0.5757895E+00 -0.1584125E+01  0.7674288E-02  0.5757384E+00
 -0.7778170E+01 -0.7778180E+01 -0.2568960E-01  0.5946088E+00 -0.1592681E+01  0.1301205E-01  0.5944664E+00
 -0.6978330E+01 -0.8503110E+01 -0.2568960E-01  0.6105484E+00 -0.1600387E+01  0.1806367E-01  0.6102811E+00
 -0.6111270E+01 -0.9146170E+01 -0.2568960E-01  0.6227115E+00 -0.1606515E+01  0.2223798E-01  0.6223143E+00
 -0.5185360E+01 -0.9701130E+01 -0.2568960E-01  0.6307275E+00 -0.1610779E+01  0.2521169E-01  0.6302234E+00
 -0.4209510E+01 -0.1016270E+02 -0.2568960E-01  0.6350437E+00 -0.1613201E+01  0.2692069E-01  0.6344728E+00
 -0.3193130E+01 -0.1052630E+02 -0.2568960E-01  0.6365241E+00 -0.1613976E+01  0.2747643E-01  0.6359308E+00
 -0.2145990E+01 -0.1078860E+02 -0.2568960E-01  0.6342784E+00 -0.1612720E+01  0.2658329E-01  0.6337211E+00
 -0.1078190E+01 -0.1094700E+02 -0.2568960E-01  0.6278773E+00 -0.1609321E+01  0.2418284E-01  0.6274114E+00
  0.1311740E-06 -0.1100000E+02 -0.2568960E-01  0.6177148E+00 -0.1603997E+01  0.2050477E-01  0.6173744E+00
  0.1078190E+01 -0.1094700E+02 -0.2568960E-01  0.6046905E+00 -0.1597354E+01  0.1605755E-01  0.6044772E+00
  0.2145990E+01 -0.1078860E+02 -0.2568960E-01  0.5880182E+00 -0.1589555E+01  0.1102983E-01  0.5879147E+00
  0.3193140E+01 -0.1052630E+02 -0.2568960E-01  0.5672659E+00 -0.1580776E+01  0.5661116E-02  0.5672377E+00
  0.4209520E+01 -0.1016270E+02 -0.2568960E-01  0.5427764E+00 -0.1571467E+01  0.3638433E-03  0.5427763E+00
  0.5185360E+01 -0.9701130E+01 -0.2568960E-01  0.5154653E+00 -0.1562556E+01 -0.4247498E-02  0.5154477E+00
  0.6111270E+01 -0.9146160E+01 -0.2568960E-01  0.4848661E+00 -0.1555159E+01 -0.7581552E-02  0.4848068E+00
  0.6978330E+01 -0.8503110E+01 -0.2568960E-01  0.4507334E+00 -0.1550333E+01 -0.9222864E-02  0.4506390E+00
  0.7778180E+01 -0.7778170E+01 -0.2568960E-01  0.4134557E+00 -0.1549487E+01 -0.8809722E-02  0.4133618E+00
  0.8503120E+01 -0.6978320E+01 -0.2568960E-01  0.3740292E+00 -0.1554701E+01 -0.6019712E-02  0.3739807E+00
  0.9146170E+01 -0.6111270E+01 -0.2568960E-01  0.3326923E+00 -0.1570059E+01 -0.2452472E-03  0.3326922E+00
  0.9701130E+01 -0.5185360E+01 -0.2568960E-01  0.2898113E+00 -0.1601154E+01  0.8796788E-02  0.2896778E+00
  0.1016270E+02 -0.4209520E+01 -0.2568960E-01  0.2463215E+00 -0.1656740E+01  0.2114367E-01  0.2454123E+00
  0.1052630E+02 -0.3193130E+01 -0.2568960E-01  0.2040848E+00 -0.1750800E+01  0.3653794E-01  0.2007874E+00
  0.1078860E+02 -0.2145990E+01 -0.2568960E-01  0.1660013E+00 -0.1909180E+01  0.5510623E-01  0.1565878E+00
  0.1094700E+02 -0.1078180E+01 -0.2568960E-01  0.1368118E+00 -0.2166039E+01  0.7671168E-01  0.1132819E+00
  0.1100000E+02  0.0000000E+00 -0.1027320E+00  0.1228762E+00 -0.2528396E+01  0.1004897E+00  0.7071341E-01
  0.1094700E+02  0.1078190E+01 -0.1027320E+00  0.1301563E+00 -0.2906065E+01  0.1265628E+00  0.3037281E-01
  0.1078860E+02  0.2145990E+01 -0.1027320E+00  0.1541609E+00  0.3093694E+01  0.1539841E+00 -0.7381225E-02
  0.1052630E+02  0.3193130E+01 -0.1027320E+00  0.1870114E+00  0.2914127E+01  0.1821942E+00 -0.4217282E-01
  0.1016270E+02  0.4209520E+01 -0.1027320E+00  0.2232698E+00  0.2803684E+01  0.2106439E+00 -0.7401723E-01
  0.9701130E+01  0.5185360E+01 -0.1027320E+00  0.2598712E+00  0.2733653E+01  0.2385462E+00 -0.1030959E+00
  0.9146170E+01  0.6111270E+01 -0.1027320E+00  0.2944472E+00  0.2689814E+01  0.2649059E+00 -0.1285458E+00
  0.8503110E+01  0.6978330E+01 -0.1027320E+00  0.3257423E+00  0.2662521E+01  0.2890713E+00 -0.1501528E+00
  0.7778170E+01  0.7778170E+01 -0.1027320E+00  0.3532417E+00  0.2645264E+01  0.3106184E+00 -0.1682139E+00
  0.6978330E+01  0.8503110E+01 -0.1027320E+00  0.3767999E+00  0.2633384E+01  0.3291791E+00 -0.1833557E+00
  0.6111270E+01  0.9146170E+01 -0.1027320E+00  0.3951752E+00  0.2626029E+01  0.3438084E+00 -0.1948312E+00
  0.5185360E+01  0.9701130E+01 -0.1027320E+00  0.4078525E+00  0.2622157E+01  0.3540565E+00 -0.2024542E+00
  0.4209520E+01  0.1016270E+02 -0.1027320E+00  0.4149167E+00  0.2620501E+01  0.3598473E+00 -0.2065569E+00
  0.3193130E+01  0.1052630E+02 -0.1027320E+00  0.4169825E+00  0.2619613E+01  0.3614546E+00 -0.2079062E+00
  0.2145990E+01  0.1078860E+02 -0.1027320E+00  0.4132207E+00  0.2620427E+01  0.3583613E+00 -0.2057389E+00
  0.1078190E+01  0.1094700E+02 -0.1027320E+00  0.4034157E+00  0.2623552E+01  0.3504840E+00 -0.1997630E+00
 -0.4808250E-06  0.1100000E+02 -0.1027320E+00  0.3879609E+00  0.2629215E+01  0.3381394E+00 -0.1901984E+00
 -0.1078190E+01  0.1094700E+02 -0.1027320E+00  0.3679432E+00  0.2637283E+01  0.3221374E+00 -0.1777912E+00
 -0.2145990E+01  0.1078860E+02 -0.1027320E+00  0.3431474E+00  0.2650509E+01  0.3025951E+00 -0.1618219E+00
 -0.3193130E+01  0.1052630E+02 -0.1027320E+00  0.3137607E+00  0.2672122E+01  0.2798142E+00 -0.1419499E+00
 -0.4209520E+01  0.1016270E+02 -0.1027320E+00  0.2805763E+00  0.2706139E+01  0.2543925E+00 -0.1183533E+00
 -0.5185370E+01  0.9701130E+01 -0.1027320E+00  0.2452117E+00  0.2757701E+01  0.2273637E+00 -0.9183960E-01
 -0.6111270E+01  0.9146160E+01 -0.1027320E+00  0.2088138E+00  0.2840071E+01  0.1993933E+00 -0.6201214E-01
 -0.6978330E+01  0.8503120E+01 -0.1027320E+00  0.1734133E+00  0.2975220E+01  0.1710188E+00 -0.2871834E-01
 -0.7778170E+01  0.7778170E+01 -0.1027320E+00  0.1430869E+00 -0.3087523E+01  0.1428778E+00  0.7732821E-02
 -0.8503120E+01  0.6978330E+01 -0.1027320E+00  0.1247189E+00 -0.2760383E+01  0.1157660E+00  0.4640086E-01
 -0.9146170E+01  0.6111270E+01 -0.1027320E+00  0.1255931E+00 -0.2375437E+01  0.9050013E-01  0.8708247E-01
 -0.9701130E+01  0.5185360E+01 -0.1027320E+00  0.1461290E+00 -0.2051218E+01  0.6753394E-01  0.1295873E+00
 -0.1016270E+02  0.4209520E+01 -0.1027320E+00  0.1797836E+00 -0.1836579E+01  0.4722275E-01  0.1734709E+00
 -0.1052630E+02  0.3193130E+01 -0.1027320E+00  0.2198481E+00 -0.1706542E+01  0.2975177E-01  0.2178256E+00
 -0.1078860E+02  0.2145990E+01 -0.1027320E+00  0.2623683E+00 -0.1630186E+01  0.1557288E-01  0.2619057E+00
 -0.1094700E+02  0.1078190E+01 -0.1027320E+00  0.3053303E+00 -0.1586430E+01  0.4773119E-02  0.3052930E+00
 -0.1100000E+02 -0.9616510E-06 -0.1027320E+00  0.3476498E+00 -0.1562919E+01 -0.2738406E-02  0.3476391E+00
 -0.1094700E+02 -0.1078190E+01 -0.1027320E+00  0.3885152E+00 -0.1551776E+01 -0.7389319E-02  0.3884450E+00
 -0.1078860E+02 -0.2146000E+01 -0.1027320E+00  0.4268649E+00 -0.1548950E+01 -0.9324735E-02  0.4267630E+00
 -0.1052630E+02 -0.3193130E+01 -0.1027320E+00  0.4623062E+00 -0.1551687E+01 -0.8833830E-02  0.4622218E+00
 -0.1016270E+02 -0.4209520E+01 -0.1027320E+00  0.4948255E+00 -0.1558079E+01 -0.6292580E-02  0.4947855E+00
 -0.9701130E+01 -0.5185360E+01 -0.1027320E+00  0.5245799E+00 -0.1566322E+01 -0.2347246E-02  0.5245746E+00
 -0.9146160E+01 -0.6111270E+01 -0.1027320E+00  0.5507377E+00 -0.1575249E+01  0.2452184E-02  0.5507322E+00
 -0.8503110E+01 -0.6978330E+01 -0.1027320E+00  0.5730882E+00 -0.1584211E+01  0.7687548E-02  0.5730366E+00
 -0.7778170E+01 -0.7778180E+01 -0.1027320E+00  0.5918822E+00 -0.1592785E+01  0.1301341E-01  0.5917391E+00
 -0.6978330E+01 -0.8503110E+01 -0.1027320E+00  0.6076797E+00 -0.1600471E+01  0.1803010E-01  0.6074121E+00
 -0.6111270E+01 -0.9146170E+01 -0.1027320E+00  0.6197135E+00 -0.1606582E+01  0.2217226E-01  0.6193168E+00
 -0.5185360E+01 -0.9701130E+01 -0.1027320E+00  0.6277699E+00 -0.1610881E+01  0.2515694E-01  0.6272657E+00
 -0.4209510E+01 -0.1016270E+02 -0.1027320E+00  0.6321362E+00 -0.1613331E+01  0.2687955E-01  0.6315644E+00
 -0.3193130E+01 -0.1052630E+02 -0.1027320E+00  0.6335381E+00 -0.1614077E+01  0.2741141E-01  0.6329448E+00
 -0.2145990E+01 -0.1078860E+02 -0.1027320E+00  0.6312253E+00 -0.1612788E+01  0.2649819E-01  0.6306689E+00
 -0.1078190E+01 -0.1094700E+02 -0.1027320E+00  0.6249297E+00 -0.1609415E+01  0.2412770E-01  0.6244637E+00
  0.1311740E-06 -0.1100000E+02 -0.1027320E+00  0.6148852E+00 -0.1604116E+01  0.2048396E-01  0.6145439E+00
  0.1078190E+01 -0.1094700E+02 -0.1027320E+00  0.6018538E+00 -0.1597450E+01  0.1603952E-01  0.6016400E+00
  0.2145990E+01 -0.1078860E+02 -0.1027320E+00  0.5851854E+00 -0.1589618E+01  0.1101369E-01  0.5850818E+00
  0.3193140E+01 -0.1052630E+02 -0.1027320E+00  0.5645948E+00 -0.1580841E+01  0.5670887E-02  0.5645663E+00
  0.4209520E+01 -0.1016270E+02 -0.1027320E+00  0.5402809E+00 -0.1571536E+01  0.3998673E-03  0.5402808E+00
  0.5185360E+01 -0.9701130E+01 -0.1027320E+00  0.5130430E+00 -0.1562622E+01 -0.4193963E-02  0.5130259E+00
  0.6111270E+01 -0.9146160E+01 -0.1027320E+00  0.4825244E+00 -0.1555217E+01 -0.7517206E-02  0.4824658E+00
  0.6978330E+01 -0.8503110E+01 -0.1027320E+00  0.4485937E+00 -0.1550353E+01 -0.9170194E-02  0.4485000E+00
  0.7778180E+01 -0.7778170E+01 -0.1027320E+00  0.4115315E+00 -0.1549470E+01 -0.8775682E-02  0.4114379E+00
  0.8503120E+01 -0.6978320E+01 -0.1027320E+00  0.3722570E+00 -0.1554714E+01 -0.5986496E-02  0.3722089E+00
  0.9146170E+01 -0.6111270E+01 -0.1027320E+00  0.3310745E+00 -0.1570118E+01 -0.2246084E-03  0.3310744E+00
  0.9701130E+01 -0.5185360E+01 -0.1027320E+00  0.2884014E+00 -0.1601132E+01  0.8747639E-02  0.2882687E+00
  0.1016270E+02 -0.4209520E+01 -0.1027320E+00  0.2451221E+00 -0.1656626E+01  0.2101303E-01  0.2442198E+00
  0.1052630E+02 -0.3193130E+01 -0.1027320E+00  0.2030845E+00 -0.1750778E+01  0.3635450E-01  0.1998041E+00
  0.1078860E+02 -0.2145990E+01 -0.1027320E+00  0.1651826E+00 -0.1909335E+01  0.5485864E-01  0.1558070E+00
  0.1094700E+02 -0.1078180E+01 -0.1027320E+00  0.1361036E+00 -0.2166331E+01  0.7634746E-01  0.1126732E+00
  0.1100000E+02  0.0000000E+00 -0.2310450E+00  0.1217745E+00 -0.2529436E+01  0.9966155E-01  0.6997569E-01
  0.1094700E+02  0.1078190E+01 -0.2310450E+00  0.1290807E+00 -0.2907073E+01  0.1255473E+00  0.2999519E-01
  0.1078860E+02  0.2145990E+01 -0.2310450E+00  0.1529582E+00  0.3092982E+01  0.1527775E+00 -0.7432494E-02
  0.1052630E+02  0.3193130E+01 -0.2310450E+00  0.1856116E+00  0.2913104E+01  0.1807876E+00 -0.4204203E-01
  0.1016270E+02  0.4209520E+01 -0.2310450E+00  0.2216528E+00  0.2802506E+01  0.2090316E+00 -0.7372750E-01
  0.9701130E+01  0.5185360E+01 -0.2310450E+00  0.2579351E+00  0.2732957E+01  0.2366977E+00 -0.1024925E+00
  0.9146170E+01  0.6111270E+01 -0.2310450E+00  0.2922085E+00  0.2689425E+01  0.2628421E+00 -0.1276708E+00
  0.8503110E+01  0.6978330E+01 -0.2310450E+00  0.3233596E+00  0.2661962E+01  0.2868735E+00 -0.1492148E+00
  0.7778170E+01  0.7778170E+01 -0.2310450E+00  0.3507473E+00  0.2644547E+01  0.3083051E+00 -0.1672473E+00
  0.6978330E+01  0.8503110E+01 -0.2310450E+00  0.3740230E+00  0.2632906E+01  0.3266660E+00 -0.1821607E+00
  0.6111270E+01  0.9146170E+01 -0.2310450E+00  0.3921706E+00  0.2625736E+01  0.3411376E+00 -0.1934502E+00
  0.5185360E+01  0.9701130E+01 -0.2310450E+00  0.4048614E+00  0.2621726E+01  0.3513732E+00 -0.2011209E+00
  0.4209520E+01  0.1016270E+02 -0.2310450E+00  0.4119928E+00  0.2619913E+01  0.3571910E+00 -0.2053111E+00
  0.3193130E+01  0.1052630E+02 -0.2310450E+00  0.4139206E+00  0.2619190E+01  0.3587131E+00 -0.2065314E+00
  0.2145990E+01  0.1078860E+02 -0.2310450E+00  0.4100779E+00  0.2620144E+01  0.3555779E+00 -0.2042748E+00
  0.1078190E+01  0.1094700E+02 -0.2310450E+00  0.4004489E+00  0.2623113E+01  0.3478194E+00 -0.1984465E+00
 -0.4808250E-06  0.1100000E+02 -0.2310450E+00  0.3852260E+00  0.2628576E+01  0.3356350E+00 -0.1890720E+00
 -0.1078190E+01  0.1094700E+02 -0.2310450E+00  0.3652494E+00  0.2636798E+01  0.3196931E+00 -0.1766448E+00
 -0.2145990E+01  0.1078860E+02 -0.2310450E+00  0.3405393E+00  0.2650172E+01  0.3002411E+00 -0.1606933E+00
 -0.3193130E+01  0.1052630E+02 -0.2310450E+00  0.3114384E+00  0.2671544E+01  0.2776618E+00 -0.1410597E+00
 -0.4209520E+01  0.1016270E+02 -0.2310450E+00  0.2785800E+00  0.2705208E+01  0.2524730E+00 -0.1177462E+00
 -0.5185370E+01  0.9701130E+01 -0.2310450E+00  0.2434095E+00  0.2756932E+01  0.2256225E+00 -0.9133820E-01
 -0.6111270E+01  0.9146160E+01 -0.2310450E+00  0.2072172E+00  0.2839526E+01  0.1978351E+00 -0.6164580E-01
 -0.6978330E+01  0.8503120E+01 -0.2310450E+00  0.1720743E+00  0.2974247E+01  0.1696705E+00 -0.2866163E-01
 -0.7778170E+01  0.7778170E+01 -0.2310450E+00  0.1419406E+00 -0.3089145E+01  0.1417454E+00  0.7441015E-02
 -0.8503120E+01  0.6978330E+01 -0.2310450E+00  0.1236749E+00 -0.2761589E+01  0.1148523E+00  0.4587396E-01
 -0.9146170E+01  0.6111270E+01 -0.2310450E+00  0.1245422E+00 -0.2375940E+01  0.8978624E-01  0.8630865E-01
 -0.9701130E+01  0.5185360E+01 -0.2310450E+00  0.1448857E+00 -0.2051282E+01  0.6696765E-01  0.1284804E+00
 -0.1016270E+02  0.4209520E+01 -0.2310450E+00  0.1782579E+00 -0.1836369E+01  0.4678588E-01  0.1720086E+00
 -0.1052630E+02  0.3193130E+01 -0.2310450E+00  0.2180355E+00 -0.1706441E+01  0.2948469E-01  0.2160327E+00
 -0.1078860E+02  0.2145990E+01 -0.2310450E+00  0.2602536E+00 -0.1630187E+01  0.1544765E-01  0.2597948E+00
 -0.1094700E+02  0.1078190E+01 -0.2310450E+00  0.3029278E+00 -0.1586333E+01  0.4706324E-02  0.3028913E+00
 -0.1100000E+02 -0.9616510E-06 -0.2310450E+00  0.3449595E+00 -0.1562755E+01 -0.2774006E-02  0.3449483E+00
 -0.1094700E+02 -0.1078190E+01 -0.2310450E+00  0.3854664E+00 -0.1551711E+01 -0.7356250E-02  0.3853962E+00
 -0.1078860E+02 -0.2146000E+01 -0.2310450E+00  0.4234912E+00 -0.1548971E+01 -0.9242147E-02  0.4233903E+00
 -0.1052630E+02 -0.3193130E+01 -0.2310450E+00  0.4587395E+00 -0.1551709E+01 -0.8755778E-02  0.4586559E+00
 -0.1016270E+02 -0.4209520E+01 -0.2310450E+00  0.4910888E+00 -0.1558089E+01 -0.6240083E-02  0.4910492E+00
 -0.9701130E+01 -0.5185360E+01 -0.2310450E+00  0.5205301E+00 -0.1566349E+01 -0.2315129E-02  0.5205250E+00
 -0.9146160E+01 -0.6111270E+01 -0.2310450E+00  0.5464177E+00 -0.1575299E+01  0.2460306E-02  0.5464121E+00
 -0.8503110E+01 -0.6978330E+01 -0.2310450E+00  0.5686936E+00 -0.1584301E+01  0.7679600E-02  0.5686417E+00
 -0.7778170E+01 -0.7778180E+01 -0.2310450E+00  0.5874485E+00 -0.1592903E+01  0.1298532E-01  0.5873050E+00
 -0.6978330E+01 -0.8503110E+01 -0.2310450E+00  0.6030177E+00 -0.1600559E+01  0.1794448E-01  0.6027507E+00
 -0.6111270E+01 -0.9146170E+01 -0.2310450E+00  0.6148660E+00 -0.1606649E+01  0.2203960E-01  0.6144709E+00
 -0.5185360E+01 -0.9701130E+01 -0.2310450E+00  0.6229644E+00 -0.1610996E+01  0.2503633E-01  0.6224611E+00
 -0.4209510E+01 -0.1016270E+02 -0.2310450E+00  0.6274123E+00 -0.1613492E+01  0.2677976E-01  0.6268405E+00
 -0.3193130E+01 -0.1052630E+02 -0.2310450E+00  0.6286888E+00 -0.1614192E+01  0.2727368E-01  0.6280969E+00
 -0.2145990E+01 -0.1078860E+02 -0.2310450E+00  0.6262917E+00 -0.1612856E+01  0.2633409E-01  0.6257378E+00
 -0.1078190E+01 -0.1094700E+02 -0.2310450E+00  0.6201416E+00 -0.1609517E+01  0.2400648E-01  0.6196768E+00
  0.1311740E-06 -0.1100000E+02 -0.2310450E+00  0.6102858E+00 -0.1604258E+01  0.2041760E-01  0.6099442E+00
  0.1078190E+01 -0.1094700E+02 -0.2310450E+00  0.5972438E+00 -0.1597554E+01  0.1597922E-01  0.5970300E+00
  0.2145990E+01 -0.1078860E+02 -0.2310450E+00  0.5806022E+00 -0.1589676E+01  0.1096078E-01  0.5804988E+00
  0.3193140E+01 -0.1052630E+02 -0.2310450E+00  0.5602497E+00 -0.1580895E+01  0.5657878E-02  0.5602211E+00
  0.4209520E+01 -0.1016270E+02 -0.2310450E+00  0.5362184E+00 -0.1571598E+01  0.4296863E-03  0.5362182E+00
  0.5185360E+01 -0.9701130E+01 -0.2310450E+00  0.5090980E+00 -0.1562676E+01 -0.4134197E-02  0.5090812E+00
  0.6111270E+01 -0.9146160E+01 -0.2310450E+00  0.4787255E+00 -0.1555250E+01 -0.7442174E-02  0.4786676E+00
  0.6978330E+01 -0.8503110E+01 -0.2310450E+00  0.4451032E+00 -0.1550327E+01 -0.9110136E-02  0.4450100E+00
  0.7778180E+01 -0.7778170E+01 -0.2310450E+00  0.4083890E+00 -0.1549383E+01 -0.8744149E-02  0.4082954E+00
  0.8503120E+01 -0.6978320E+01 -0.2310450E+00  0.3693605E+00 -0.1554670E+01 -0.5956158E-02  0.3693125E+00
  0.9146170E+01 -0.6111270E+01 -0.2310450E+00  0.3284344E+00 -0.1570119E+01 -0.2225018E-03  0.3284343E+00
  0.9701130E+01 -0.5185360E+01 -0.2310450E+00  0.2860880E+00 -0.1601018E+01  0.8644630E-02  0.2859574E+00
  0.1016270E+02 -0.4209520E+01 -0.2310450E+00  0.2431480E+00 -0.1656354E+01  0.2077775E-01  0.2422587E+00
  0.1052630E+02 -0.3193130E+01 -0.2310450E+00  0.2014291E+00 -0.1750641E+01  0.3603107E-01  0.1981803E+00
  0.1078860E+02 -0.2145990E+01 -0.2310450E+00  0.1638124E+00 -0.1909464E+01  0.5442349E-01  0.1545075E+00
  0.1094700E+02 -0.1078180E+01 -0.2310450E+00  0.1349139E+00 -0.2166757E+01  0.7572775E-01  0.1116561E+00
  0.1100000E+02  0.0000000E+00 -0.4105000E+00  0.1202985E+00 -0.2530786E+01  0.9854680E-01  0.6899460E-01
  0.1094700E+02  0.1078190E+01 -0.4105000E+00  0.1276165E+00 -0.2908285E+01  0.1241590E+00  0.2950457E-01
  0.1078860E+02  0.2145990E+01 -0.4105000E+00  0.1513029E+00  0.3092094E+01  0.1511176E+00 -0.7486223E-02
  0.1052630E+02  0.3193130E+01 -0.4105000E+00  0.1836716E+00  0.2911860E+01  0.1788461E+00 -0.4182528E-01
  0.1016270E+02  0.4209520E+01 -0.4105000E+00  0.2193781E+00  0.2801135E+01  0.2067862E+00 -0.7325440E-01
  0.9701130E+01  0.5185360E+01 -0.4105000E+00  0.2552201E+00  0.2732115E+01  0.2341207E+00 -0.1016109E+00
  0.9146170E+01  0.6111270E+01 -0.4105000E+00  0.2890877E+00  0.2688918E+01  0.2599710E+00 -0.1264390E+00
  0.8503110E+01  0.6978330E+01 -0.4105000E+00  0.3200133E+00  0.2661257E+01  0.2838005E+00 -0.1478708E+00
  0.7778170E+01  0.7778170E+01 -0.4105000E+00  0.3472029E+00  0.2643676E+01  0.3050452E+00 -0.1658229E+00
  0.6978330E+01  0.8503110E+01 -0.4105000E+00  0.3701164E+00  0.2632288E+01  0.3231427E+00 -0.1804577E+00
  0.6111270E+01  0.9146170E+01 -0.4105000E+00  0.3879697E+00  0.2625319E+01  0.3374036E+00 -0.1915184E+00
  0.5185360E+01  0.9701130E+01 -0.4105000E+00  0.4006517E+00  0.2621152E+01  0.3476055E+00 -0.1992290E+00
  0.4209520E+01  0.1016270E+02 -0.4105000E+00  0.4078310E+00  0.2619175E+01  0.3534327E+00 -0.2034982E+00
  0.3193130E+01  0.1052630E+02 -0.4105000E+00  0.4096104E+00  0.2618627E+01  0.3548626E+00 -0.2045805E+00
  0.2145990E+01  0.1078860E+02 -0.4105000E+00  0.4056842E+00  0.2619739E+01  0.3516863E+00 -0.2022286E+00
  0.1078190E+01  0.1094700E+02 -0.4105000E+00  0.3962694E+00  0.2622528E+01  0.3440743E+00 -0.1965765E+00
 -0.4808250E-06  0.1100000E+02 -0.4105000E+00  0.3813338E+00  0.2627782E+01  0.3320952E+00 -0.1874253E+00
 -0.1078190E+01  0.1094700E+02 -0.4105000E+00  0.3614629E+00  0.2636170E+01  0.3162691E+00 -0.1750122E+00
 -0.2145990E+01  0.1078860E+02 -0.4105000E+00  0.3368979E+00  0.2649720E+01  0.2969587E+00 -0.1591092E+00
 -0.3193130E+01  0.1052630E+02 -0.4105000E+00  0.3081753E+00  0.2670822E+01  0.2746517E+00 -0.1397800E+00
 -0.4209520E+01  0.1016270E+02 -0.4105000E+00  0.2757533E+00  0.2704109E+01  0.2497830E+00 -0.1168260E+00
 -0.5185370E+01  0.9701130E+01 -0.4105000E+00  0.2408916E+00  0.2755990E+01  0.2232034E+00 -0.9060351E-01
 -0.6111270E+01  0.9146160E+01 -0.4105000E+00  0.2050021E+00  0.2838852E+01  0.1956792E+00 -0.6111874E-01
 -0.6978330E+01  0.8503120E+01 -0.4105000E+00  0.1702183E+00  0.2973105E+01  0.1678080E+00 -0.2854417E-01
 -0.7778170E+01  0.7778170E+01 -0.4105000E+00  0.1403726E+00 -0.3091048E+01  0.1401933E+00  0.7091995E-02