 VARIABLES="X" "Y" "Z" "abs(eta) (m)" "angle(phi) (rad)" "PRE1" "PRE2"
ZONE N=   3200 ,E =    3136 ,F=FEPOINT,ET=QUADRILATERAL
  0.1010000E+02  0.0000000E+00  0.0000000E+00  0.1554153E+00  0.2351619E+01  0.1093913E+00 -0.1103968E+00
  0.1005140E+02  0.9899730E+00  0.0000000E+00  0.1738865E+00  0.2310187E+01  0.1171713E+00 -0.1284811E+00
  0.9905930E+01  0.1970410E+01  0.0000000E+00  0.1909785E+00  0.2282377E+01  0.1247150E+00 -0.1446339E+00
  0.9665100E+01  0.2931880E+01  0.0000000E+00  0.2063303E+00  0.2262546E+01  0.1316151E+00 -0.1589014E+00
  0.9331180E+01  0.3865100E+01  0.0000000E+00  0.2189890E+00  0.2249189E+01  0.1374248E+00 -0.1705010E+00
  0.8907400E+01  0.4761110E+01  0.0000000E+00  0.2286702E+00  0.2241292E+01  0.1420899E+00 -0.1791662E+00
  0.8397840E+01  0.5611260E+01  0.0000000E+00  0.2357501E+00  0.2236606E+01  0.1456220E+00 -0.1853978E+00
  0.7807410E+01  0.6407370E+01  0.0000000E+00  0.2404319E+00  0.2233145E+01  0.1478585E+00 -0.1895927E+00
  0.7141780E+01  0.7141780E+01  0.0000000E+00  0.2421146E+00  0.2231708E+01  0.1486189E+00 -0.1911332E+00
  0.6407370E+01  0.7807410E+01  0.0000000E+00  0.2404321E+00  0.2233145E+01  0.1478586E+00 -0.1895928E+00
  0.5611260E+01  0.8397840E+01  0.0000000E+00  0.2357501E+00  0.2236607E+01  0.1456220E+00 -0.1853978E+00
  0.4761110E+01  0.8907410E+01  0.0000000E+00  0.2286701E+00  0.2241294E+01  0.1420901E+00 -0.1791659E+00
  0.3865100E+01  0.9331180E+01  0.0000000E+00  0.2189890E+00  0.2249189E+01  0.1374250E+00 -0.1705009E+00
  0.2931870E+01  0.9665100E+01  0.0000000E+00  0.2063303E+00  0.2262545E+01  0.1316150E+00 -0.1589015E+00
  0.1970410E+01  0.9905930E+01  0.0000000E+00  0.1909785E+00  0.2282376E+01  0.1247149E+00 -0.1446340E+00
  0.9899730E+00  0.1005140E+02  0.0000000E+00  0.1738866E+00  0.2310187E+01  0.1171714E+00 -0.1284811E+00
 -0.4414850E-06  0.1010000E+02  0.0000000E+00  0.1554155E+00  0.2351617E+01  0.1093912E+00 -0.1103973E+00
 -0.9899740E+00  0.1005140E+02  0.0000000E+00  0.1355050E+00  0.2416289E+01  0.1013981E+00 -0.8988893E-01
 -0.1970410E+01  0.9905930E+01  0.0000000E+00  0.1148562E+00  0.2518054E+01  0.9324224E-01 -0.6706581E-01
 -0.2931880E+01  0.9665100E+01  0.0000000E+00  0.9553930E-01  0.2676826E+01  0.8540507E-01 -0.4282211E-01
 -0.3865100E+01  0.9331180E+01  0.0000000E+00  0.8024782E-01  0.2921054E+01  0.7830419E-01 -0.1755465E-01
 -0.4761110E+01  0.8907400E+01  0.0000000E+00  0.7255548E-01 -0.3015583E+01  0.7198021E-01  0.9118532E-02
 -0.5611260E+01  0.8397840E+01  0.0000000E+00  0.7618831E-01 -0.2630518E+01  0.6645294E-01  0.3726481E-01
 -0.6407370E+01  0.7807410E+01  0.0000000E+00  0.9050404E-01 -0.2325299E+01  0.6198862E-01  0.6594235E-01
 -0.7141780E+01  0.7141780E+01  0.0000000E+00  0.1111934E+00 -0.2127555E+01  0.5875869E-01  0.9440013E-01
 -0.7807410E+01  0.6407370E+01  0.0000000E+00  0.1353517E+00 -0.2003792E+01  0.5679249E-01  0.1228605E+00
 -0.8397840E+01  0.5611260E+01  0.0000000E+00  0.1615856E+00 -0.1925158E+01  0.5606888E-01  0.1515460E+00
 -0.8907410E+01  0.4761110E+01  0.0000000E+00  0.1883744E+00 -0.1875418E+01  0.5649963E-01  0.1797017E+00
 -0.9331180E+01  0.3865100E+01  0.0000000E+00  0.2143614E+00 -0.1844383E+01  0.5791753E-01  0.2063889E+00
 -0.9665100E+01  0.2931880E+01  0.0000000E+00  0.2393986E+00 -0.1825521E+01  0.6032352E-01  0.2316738E+00
 -0.9905930E+01  0.1970410E+01  0.0000000E+00  0.2637402E+00 -0.1814619E+01  0.6367064E-01  0.2559393E+00
 -0.1005140E+02  0.9899730E+00  0.0000000E+00  0.2868615E+00 -0.1808680E+01  0.6759784E-01  0.2787831E+00
 -0.1010000E+02 -0.8829700E-06  0.0000000E+00  0.3077860E+00 -0.1805981E+01  0.7172100E-01  0.2993131E+00
 -0.1005140E+02 -0.9899740E+00  0.0000000E+00  0.3263971E+00 -0.1805869E+01  0.7602231E-01  0.3174204E+00
 -0.9905930E+01 -0.1970410E+01  0.0000000E+00  0.3431611E+00 -0.1807461E+01  0.8045793E-01  0.3335957E+00
 -0.9665100E+01 -0.2931880E+01  0.0000000E+00  0.3580310E+00 -0.1809459E+01  0.8463988E-01  0.3478826E+00
 -0.9331180E+01 -0.3865100E+01  0.0000000E+00  0.3701617E+00 -0.1811402E+01  0.8820610E-01  0.3594988E+00
 -0.8907400E+01 -0.4761110E+01  0.0000000E+00  0.3792907E+00 -0.1813455E+01  0.9113769E-01  0.3681785E+00
 -0.8397840E+01 -0.5611260E+01  0.0000000E+00  0.3859001E+00 -0.1815300E+01  0.9341659E-01  0.3744225E+00
 -0.7807400E+01 -0.6407370E+01  0.0000000E+00  0.3903249E+00 -0.1816284E+01  0.9486052E-01  0.3786225E+00
 -0.7141780E+01 -0.7141780E+01  0.0000000E+00  0.3919385E+00 -0.1816525E+01  0.9534440E-01  0.3801648E+00
 -0.6407370E+01 -0.7807410E+01  0.0000000E+00  0.3903249E+00 -0.1816285E+01  0.9486061E-01  0.3786225E+00
 -0.5611260E+01 -0.8397850E+01  0.0000000E+00  0.3858994E+00 -0.1815300E+01  0.9341642E-01  0.3744219E+00
 -0.4761110E+01 -0.8907410E+01  0.0000000E+00  0.3792900E+00 -0.1813456E+01  0.9113761E-01  0.3681777E+00
 -0.3865100E+01 -0.9331190E+01  0.0000000E+00  0.3701616E+00 -0.1811402E+01  0.8820618E-01  0.3594986E+00
 -0.2931870E+01 -0.9665100E+01  0.0000000E+00  0.3580303E+00 -0.1809459E+01  0.8463971E-01  0.3478819E+00
 -0.1970410E+01 -0.9905930E+01  0.0000000E+00  0.3431611E+00 -0.1807461E+01  0.8045796E-01  0.3335957E+00
 -0.9899710E+00 -0.1005140E+02  0.0000000E+00  0.3263965E+00 -0.1805869E+01  0.7602223E-01  0.3174197E+00
  0.1204410E-06 -0.1010000E+02  0.0000000E+00  0.3077858E+00 -0.1805981E+01  0.7172108E-01  0.2993128E+00
  0.9899760E+00 -0.1005140E+02  0.0000000E+00  0.2868610E+00 -0.1808679E+01  0.6759763E-01  0.2787827E+00
  0.1970410E+01 -0.9905930E+01  0.0000000E+00  0.2637397E+00 -0.1814620E+01  0.6367068E-01  0.2559388E+00
  0.2931880E+01 -0.9665100E+01  0.0000000E+00  0.2393986E+00 -0.1825521E+01  0.6032337E-01  0.2316738E+00
  0.3865100E+01 -0.9331180E+01  0.0000000E+00  0.2143610E+00 -0.1844383E+01  0.5791746E-01  0.2063885E+00
  0.4761110E+01 -0.8907410E+01  0.0000000E+00  0.1883745E+00 -0.1875419E+01  0.5649978E-01  0.1797018E+00
  0.5611260E+01 -0.8397840E+01  0.0000000E+00  0.1615854E+00 -0.1925159E+01  0.5606889E-01  0.1515458E+00
  0.6407370E+01 -0.7807410E+01  0.0000000E+00  0.1353516E+00 -0.2003793E+01  0.5679253E-01  0.1228603E+00
  0.7141780E+01 -0.7141780E+01  0.0000000E+00  0.1111934E+00 -0.2127556E+01  0.5875875E-01  0.9440006E-01
  0.7807410E+01 -0.6407370E+01  0.0000000E+00  0.9050394E-01 -0.2325299E+01  0.6198853E-01  0.6594229E-01
  0.8397840E+01 -0.5611260E+01  0.0000000E+00  0.7618815E-01 -0.2630517E+01  0.6645273E-01  0.3726484E-01
  0.8907410E+01 -0.4761110E+01  0.0000000E+00  0.7255539E-01 -0.3015583E+01  0.7198012E-01  0.9118491E-02
  0.9331180E+01 -0.3865100E+01  0.0000000E+00  0.8024773E-01  0.2921055E+01  0.7830413E-01 -0.1755455E-01
  0.9665100E+01 -0.2931870E+01  0.0000000E+00  0.9553957E-01  0.2676825E+01  0.8540528E-01 -0.4282229E-01
  0.9905930E+01 -0.1970410E+01  0.0000000E+00  0.1148562E+00  0.2518054E+01  0.9324221E-01 -0.6706586E-01
  0.1005140E+02 -0.9899690E+00  0.0000000E+00  0.1355052E+00  0.2416290E+01  0.1013983E+00 -0.8988903E-01
  0.1010000E+02  0.0000000E+00 -0.2568960E-01  0.1552856E+00  0.2351557E+01  0.1092931E+00 -0.1103115E+00
  0.1005140E+02  0.9899730E+00 -0.2568960E-01  0.1737716E+00  0.2310016E+01  0.1170719E+00 -0.1284162E+00
  0.9905930E+01  0.1970410E+01 -0.2568960E-01  0.1908139E+00  0.2282348E+01  0.1246034E+00 -0.1445128E+00
  0.9665100E+01  0.2931880E+01 -0.2568960E-01  0.2061916E+00  0.2262414E+01  0.1315056E+00 -0.1588119E+00
  0.9331180E+01  0.3865100E+01 -0.2568960E-01  0.2188069E+00  0.2249152E+01  0.1373042E+00 -0.1703643E+00
  0.8907400E+01  0.4761110E+01 -0.2568960E-01  0.2285194E+00  0.2241180E+01  0.1419761E+00 -0.1790640E+00
  0.8397840E+01  0.5611260E+01 -0.2568960E-01  0.2355468E+00  0.2236586E+01  0.1454925E+00 -0.1852409E+00
  0.7807410E+01  0.6407370E+01 -0.2568960E-01  0.2402726E+00  0.2233039E+01  0.1477405E+00 -0.1894826E+00
  0.7141780E+01  0.7141780E+01 -0.2568960E-01  0.2419127E+00  0.2231679E+01  0.1484894E+00 -0.1909781E+00
  0.6407370E+01  0.7807410E+01 -0.2568960E-01  0.2402725E+00  0.2233040E+01  0.1477406E+00 -0.1894824E+00
  0.5611260E+01  0.8397840E+01 -0.2568960E-01  0.2355469E+00  0.2236586E+01  0.1454927E+00 -0.1852410E+00
  0.4761110E+01  0.8907410E+01 -0.2568960E-01  0.2285191E+00  0.2241181E+01  0.1419761E+00 -0.1790636E+00
  0.3865100E+01  0.9331180E+01 -0.2568960E-01  0.2188070E+00  0.2249152E+01  0.1373044E+00 -0.1703644E+00
  0.2931870E+01  0.9665100E+01 -0.2568960E-01  0.2061915E+00  0.2262412E+01  0.1315054E+00 -0.1588121E+00
  0.1970410E+01  0.9905930E+01 -0.2568960E-01  0.1908142E+00  0.2282349E+01  0.1246037E+00 -0.1445129E+00
  0.9899730E+00  0.1005140E+02 -0.2568960E-01  0.1737716E+00  0.2310014E+01  0.1170717E+00 -0.1284164E+00
 -0.4414850E-06  0.1010000E+02 -0.2568960E-01  0.1552857E+00  0.2351557E+01  0.1092932E+00 -0.1103116E+00
 -0.9899740E+00  0.1005140E+02 -0.2568960E-01  0.1354083E+00  0.2416065E+01  0.1013057E+00 -0.8984749E-01
 -0.1970410E+01  0.9905930E+01 -0.2568960E-01  0.1147562E+00  0.2517995E+01  0.9315712E-01 -0.6701294E-01
 -0.2931880E+01  0.9665100E+01 -0.2568960E-01  0.9546494E-01  0.2676479E+01  0.8532377E-01 -0.4281834E-01
 -0.3865100E+01  0.9331180E+01 -0.2568960E-01  0.8017515E-01  0.2920936E+01  0.7823122E-01 -0.1754800E-01
 -0.4761110E+01  0.8907400E+01 -0.2568960E-01  0.7247800E-01 -0.3015818E+01  0.7190549E-01  0.9091878E-02
 -0.5611260E+01  0.8397840E+01 -0.2568960E-01  0.7611539E-01 -0.2630558E+01  0.6639079E-01  0.3722654E-01
 -0.6407370E+01  0.7807410E+01 -0.2568960E-01  0.9040589E-01 -0.2325300E+01  0.6192146E-01  0.6587077E-01
 -0.7141780E+01  0.7141780E+01 -0.2568960E-01  0.1110886E+00 -0.2127542E+01  0.5870214E-01  0.9431188E-01
 -0.7807410E+01  0.6407370E+01 -0.2568960E-01  0.1352302E+00 -0.2003694E+01  0.5672942E-01  0.1227557E+00
 -0.8397840E+01  0.5611260E+01 -0.2568960E-01  0.1614377E+00 -0.1925150E+01  0.5601628E-01  0.1514077E+00
 -0.8907410E+01  0.4761110E+01 -0.2568960E-01  0.1882132E+00 -0.1875344E+01  0.5643791E-01  0.1795521E+00
 -0.9331180E+01  0.3865100E+01 -0.2568960E-01  0.2141702E+00 -0.1844367E+01  0.5786264E-01  0.2062057E+00
 -0.9665100E+01  0.2931880E+01 -0.2568960E-01  0.2392089E+00 -0.1825465E+01  0.6026258E-01  0.2314937E+00
 -0.9905930E+01  0.1970410E+01 -0.2568960E-01  0.2635031E+00 -0.1814615E+01  0.6361241E-01  0.2557095E+00
 -0.1005140E+02  0.9899730E+00 -0.2568960E-01  0.2866349E+00 -0.1808639E+01  0.6753293E-01  0.2785657E+00
 -0.1010000E+02 -0.8829700E-06 -0.2568960E-01  0.3075161E+00 -0.1805975E+01  0.7165646E-01  0.2990510E+00
 -0.1005140E+02 -0.9899740E+00 -0.2568960E-01  0.3261465E+00 -0.1805845E+01  0.7595642E-01  0.3171784E+00
 -0.9905930E+01 -0.1970410E+01 -0.2568960E-01  0.3428552E+00 -0.1807460E+01  0.8038620E-01  0.3332983E+00
 -0.9665100E+01 -0.2931880E+01 -0.2568960E-01  0.3577553E+00 -0.1809443E+01  0.8456896E-01  0.3476160E+00
 -0.9331180E+01 -0.3865100E+01 -0.2568960E-01  0.3698396E+00 -0.1811402E+01  0.8812926E-01  0.3591860E+00
 -0.8907400E+01 -0.4761110E+01 -0.2568960E-01  0.3790032E+00 -0.1813447E+01  0.9106550E-01  0.3679001E+00
 -0.8397840E+01 -0.5611260E+01 -0.2568960E-01  0.3855562E+00 -0.1815302E+01  0.9333438E-01  0.3740886E+00
 -0.7807400E+01 -0.6407370E+01 -0.2568960E-01  0.3900288E+00 -0.1816278E+01  0.9478601E-01  0.3783359E+00
 -0.7141780E+01 -0.7141780E+01 -0.2568960E-01  0.3915974E+00 -0.1816528E+01  0.9526222E-01  0.3798337E+00
 -0.6407370E+01 -0.7807410E+01 -0.2568960E-01  0.3900286E+00 -0.1816277E+01  0.9478591E-01  0.3783357E+00
 -0.5611260E+01 -0.8397850E+01 -0.2568960E-01  0.3855555E+00 -0.1815303E+01  0.9333437E-01  0.3740879E+00
 -0.4761110E+01 -0.8907410E+01 -0.2568960E-01  0.3790022E+00 -0.1813447E+01  0.9106550E-01  0.3678991E+00
 -0.3865100E+01 -0.9331190E+01 -0.2568960E-01  0.3698388E+00 -0.1811402E+01  0.8812926E-01  0.3591851E+00
 -0.2931870E+01 -0.9665100E+01 -0.2568960E-01  0.3577549E+00 -0.1809443E+01  0.8456875E-01  0.3476158E+00
 -0.1970410E+01 -0.9905930E+01 -0.2568960E-01  0.3428550E+00 -0.1807461E+01  0.8038632E-01  0.3332980E+00
 -0.9899710E+00 -0.1005140E+02 -0.2568960E-01  0.3261466E+00 -0.1805845E+01  0.7595644E-01  0.3171785E+00
  0.1204410E-06 -0.1010000E+02 -0.2568960E-01  0.3075161E+00 -0.1805975E+01  0.7165646E-01  0.2990510E+00
  0.9899760E+00 -0.1005140E+02 -0.2568960E-01  0.2866337E+00 -0.1808639E+01  0.6753268E-01  0.2785646E+00
  0.1970410E+01 -0.9905930E+01 -0.2568960E-01  0.2635031E+00 -0.1814616E+01  0.6361250E-01  0.2557095E+00
  0.2931880E+01 -0.9665100E+01 -0.2568960E-01  0.2392087E+00 -0.1825465E+01  0.6026261E-01  0.2314935E+00
  0.3865100E+01 -0.9331180E+01 -0.2568960E-01  0.2141701E+00 -0.1844367E+01  0.5786258E-01  0.2062056E+00
  0.4761110E+01 -0.8907410E+01 -0.2568960E-01  0.1882131E+00 -0.1875344E+01  0.5643788E-01  0.1795521E+00
  0.5611260E+01 -0.8397840E+01 -0.2568960E-01  0.1614377E+00 -0.1925148E+01  0.5601608E-01  0.1514078E+00
  0.6407370E+01 -0.7807410E+01 -0.2568960E-01  0.1352301E+00 -0.2003696E+01  0.5672967E-01  0.1227556E+00
  0.7141780E+01 -0.7141780E+01 -0.2568960E-01  0.1110885E+00 -0.2127542E+01  0.5870208E-01  0.9431185E-01
  0.7807410E+01 -0.6407370E+01 -0.2568960E-01  0.9040590E-01 -0.2325303E+01  0.6192166E-01  0.6587060E-01
  0.8397840E+01 -0.5611260E+01 -0.2568960E-01  0.7611535E-01 -0.2630558E+01  0.6639079E-01  0.3722647E-01
  0.8907410E+01 -0.4761110E+01 -0.2568960E-01  0.7247791E-01 -0.3015819E+01  0.7190540E-01  0.9091825E-02
  0.9331180E+01 -0.3865100E+01 -0.2568960E-01  0.8017527E-01  0.2920937E+01  0.7823134E-01 -0.1754794E-01
  0.9665100E+01 -0.2931870E+01 -0.2568960E-01  0.9546509E-01  0.2676480E+01  0.8532394E-01 -0.4281832E-01
  0.9905930E+01 -0.1970410E+01 -0.2568960E-01  0.1147561E+00  0.2517997E+01  0.9315719E-01 -0.6701271E-01
  0.1005140E+02 -0.9899690E+00 -0.2568960E-01  0.1354081E+00  0.2416064E+01  0.1013054E+00 -0.8984753E-01
  0.1010000E+02  0.0000000E+00 -0.1027320E+00  0.1548771E+00  0.2351491E+01  0.1089984E+00 -0.1100285E+00
  0.1005140E+02  0.9899730E+00 -0.1027320E+00  0.1733466E+00  0.2309865E+01  0.1167662E+00 -0.1281198E+00
  0.9905930E+01  0.1970410E+01 -0.1027320E+00  0.1903007E+00  0.2282361E+01  0.1242701E+00 -0.1441225E+00
  0.9665100E+01  0.2931880E+01 -0.1027320E+00  0.2056748E+00  0.2262319E+01  0.1311610E+00 -0.1584263E+00
  0.9331180E+01  0.3865100E+01 -0.1027320E+00  0.2182350E+00  0.2249148E+01  0.1369448E+00 -0.1699195E+00
  0.8907400E+01  0.4761110E+01 -0.1027320E+00  0.2279578E+00  0.2241116E+01  0.1416157E+00 -0.1786331E+00
  0.8397840E+01  0.5611260E+01 -0.1027320E+00  0.2349141E+00  0.2236623E+01  0.1451086E+00 -0.1847380E+00
  0.7807410E+01  0.6407370E+01 -0.1027320E+00  0.2396772E+00  0.2232986E+01  0.1473644E+00 -0.1890209E+00
  0.7141780E+01  0.7141780E+01 -0.1027320E+00  0.2412807E+00  0.2231692E+01  0.1481040E+00 -0.1904773E+00
  0.6407370E+01  0.7807410E+01 -0.1027320E+00  0.2396771E+00  0.2232986E+01  0.1473644E+00 -0.1890207E+00
  0.5611260E+01  0.8397840E+01 -0.1027320E+00  0.2349143E+00  0.2236623E+01  0.1451088E+00 -0.1847381E+00
  0.4761110E+01  0.8907410E+01 -0.1027320E+00  0.2279575E+00  0.2241116E+01  0.1416155E+00 -0.1786328E+00
  0.3865100E+01  0.9331180E+01 -0.1027320E+00  0.2182349E+00  0.2249148E+01  0.1369448E+00 -0.1699194E+00
  0.2931870E+01  0.9665100E+01 -0.1027320E+00  0.2056750E+00  0.2262319E+01  0.1311612E+00 -0.1584264E+00
  0.1970410E+01  0.9905930E+01 -0.1027320E+00  0.1903010E+00  0.2282361E+01  0.1242702E+00 -0.1441228E+00
  0.9899730E+00  0.1005140E+02 -0.1027320E+00  0.1733465E+00  0.2309864E+01  0.1167660E+00 -0.1281199E+00
 -0.4414850E-06  0.1010000E+02 -0.1027320E+00  0.1548774E+00  0.2351492E+01  0.1089987E+00 -0.1100287E+00
 -0.9899740E+00  0.1005140E+02 -0.1027320E+00  0.1350583E+00  0.2415861E+01  0.1010255E+00 -0.8963586E-01
 -0.1970410E+01  0.9905930E+01 -0.1027320E+00  0.1144447E+00  0.2517948E+01  0.9290104E-01 -0.6683543E-01
 -0.2931880E+01  0.9665100E+01 -0.1027320E+00  0.9521946E-01  0.2676063E+01  0.8508656E-01 -0.4274368E-01
 -0.3865100E+01  0.9331180E+01 -0.1027320E+00  0.7995167E-01  0.2920748E+01  0.7800987E-01 -0.1751368E-01
 -0.4761110E+01  0.8907400E+01 -0.1027320E+00  0.7226114E-01 -0.3015962E+01  0.7169164E-01  0.9054336E-02
 -0.5611260E+01  0.8397840E+01 -0.1027320E+00  0.7589779E-01 -0.2630581E+01  0.6620185E-01  0.3711859E-01
 -0.6407370E+01  0.7807410E+01 -0.1027320E+00  0.9013040E-01 -0.2325337E+01  0.6173522E-01  0.6566774E-01
 -0.7141780E+01  0.7141780E+01 -0.1027320E+00  0.1107732E+00 -0.2127474E+01  0.5852903E-01  0.9404813E-01
 -0.7807410E+01  0.6407370E+01 -0.1027320E+00  0.1348627E+00 -0.2003538E+01  0.5655624E-01  0.1224310E+00
 -0.8397840E+01  0.5611260E+01 -0.1027320E+00  0.1609886E+00 -0.1925118E+01  0.5585568E-01  0.1509883E+00
 -0.8907410E+01  0.4761110E+01 -0.1027320E+00  0.1876939E+00 -0.1875255E+01  0.5626624E-01  0.1790618E+00
 -0.9331180E+01  0.3865100E+01 -0.1027320E+00  0.2135842E+00 -0.1844330E+01  0.5769663E-01  0.2056436E+00
 -0.9665100E+01  0.2931880E+01 -0.1027320E+00  0.2385829E+00 -0.1825407E+01  0.6009160E-01  0.2308913E+00
 -0.9905930E+01  0.1970410E+01 -0.1027320E+00  0.2627772E+00 -0.1814617E+01  0.6343757E-01  0.2550049E+00
 -0.1005140E+02  0.9899730E+00 -0.1027320E+00  0.2858710E+00 -0.1808604E+01  0.6734329E-01  0.2778257E+00
 -0.1010000E+02 -0.8829700E-06 -0.1027320E+00  0.3066835E+00 -0.1805982E+01  0.7146434E-01  0.2982408E+00
 -0.1005140E+02 -0.9899740E+00 -0.1027320E+00  0.3252994E+00 -0.1805847E+01  0.7575980E-01  0.3163545E+00
 -0.9905930E+01 -0.1970410E+01 -0.1027320E+00  0.3419129E+00 -0.1807489E+01  0.8017460E-01  0.3323800E+00
 -0.9665100E+01 -0.2931880E+01 -0.1027320E+00  0.3568152E+00 -0.1809452E+01  0.8434980E-01  0.3467019E+00
 -0.9331180E+01 -0.3865100E+01 -0.1027320E+00  0.3688409E+00 -0.1811435E+01  0.8790337E-01  0.3582131E+00
 -0.8907400E+01 -0.4761110E+01 -0.1027320E+00  0.3780182E+00 -0.1813478E+01  0.9084025E-01  0.3669411E+00
 -0.8397840E+01 -0.5611260E+01 -0.1027320E+00  0.3844976E+00 -0.1815344E+01  0.9309347E-01  0.3730577E+00
 -0.7807400E+01 -0.6407370E+01 -0.1027320E+00  0.3890114E+00 -0.1816310E+01  0.9455099E-01  0.3773459E+00
 -0.7141780E+01 -0.7141780E+01 -0.1027320E+00  0.3905407E+00 -0.1816571E+01  0.9502160E-01  0.3788046E+00
 -0.6407370E+01 -0.7807410E+01 -0.1027320E+00  0.3890111E+00 -0.1816310E+01  0.9455087E-01  0.3773457E+00
 -0.5611260E+01 -0.8397850E+01 -0.1027320E+00  0.3844971E+00 -0.1815344E+01  0.9309357E-01  0.3730571E+00
 -0.4761110E+01 -0.8907410E+01 -0.1027320E+00  0.3780175E+00 -0.1813478E+01  0.9084002E-01  0.3669405E+00
 -0.3865100E+01 -0.9331190E+01 -0.1027320E+00  0.3688400E+00 -0.1811435E+01  0.8790314E-01  0.3582122E+00
 -0.2931870E+01 -0.9665100E+01 -0.1027320E+00  0.3568155E+00 -0.1809452E+01  0.8434989E-01  0.3467022E+00
 -0.1970410E+01 -0.9905930E+01 -0.1027320E+00  0.3419125E+00 -0.1807488E+01  0.8017445E-01  0.3323797E+00
 -0.9899710E+00 -0.1005140E+02 -0.1027320E+00  0.3252987E+00 -0.1805848E+01  0.7575978E-01  0.3163538E+00
  0.1204410E-06 -0.1010000E+02 -0.1027320E+00  0.3066829E+00 -0.1805982E+01  0.7146420E-01  0.2982402E+00
  0.9899760E+00 -0.1005140E+02 -0.1027320E+00  0.2858702E+00 -0.1808605E+01  0.6734335E-01  0.2778248E+00
  0.1970410E+01 -0.9905930E+01 -0.1027320E+00  0.2627768E+00 -0.1814617E+01  0.6343745E-01  0.2550046E+00
  0.2931880E+01 -0.9665100E+01 -0.1027320E+00  0.2385828E+00 -0.1825407E+01  0.6009149E-01  0.2308912E+00
  0.3865100E+01 -0.9331180E+01 -0.1027320E+00  0.2135841E+00 -0.1844331E+01  0.5769690E-01  0.2056435E+00
  0.4761110E+01 -0.8907410E+01 -0.1027320E+00  0.1876937E+00 -0.1875256E+01  0.5626643E-01  0.1790615E+00
  0.5611260E+01 -0.8397840E+01 -0.1027320E+00  0.1609885E+00 -0.1925119E+01  0.5585574E-01  0.1509882E+00
  0.6407370E+01 -0.7807410E+01 -0.1027320E+00  0.1348626E+00 -0.2003539E+01  0.5655628E-01  0.1224309E+00
  0.7141780E+01 -0.7141780E+01 -0.1027320E+00  0.1107733E+00 -0.2127475E+01  0.5852924E-01  0.9404817E-01
  0.7807410E+01 -0.6407370E+01 -0.1027320E+00  0.9013055E-01 -0.2325341E+01  0.6173552E-01  0.6566767E-01
  0.8397840E+01 -0.5611260E+01 -0.1027320E+00  0.7589781E-01 -0.2630580E+01  0.6620184E-01  0.3711862E-01
  0.8907410E+01 -0.4761110E+01 -0.1027320E+00  0.7226131E-01 -0.3015962E+01  0.7169181E-01  0.9054370E-02
  0.9331180E+01 -0.3865100E+01 -0.1027320E+00  0.7995137E-01  0.2920749E+01  0.7800959E-01 -0.1751355E-01
  0.9665100E+01 -0.2931870E+01 -0.1027320E+00  0.9521975E-01  0.2676060E+01  0.8508673E-01 -0.4274402E-01
  0.9905930E+01 -0.1970410E+01 -0.1027320E+00  0.1144447E+00  0.2517948E+01  0.9290116E-01 -0.6683543E-01
  0.1005140E+02 -0.9899690E+00 -0.1027320E+00  0.1350580E+00  0.2415861E+01  0.1010252E+00 -0.8963569E-01
  0.1010000E+02  0.0000000E+00 -0.2310450E+00  0.1542252E+00  0.2351223E+01  0.1085102E+00 -0.1095944E+00
  0.1005140E+02  0.9899730E+00 -0.2310450E+00  0.1726367E+00  0.2309590E+01  0.1162529E+00 -0.1276271E+00
  0.9905930E+01  0.1970410E+01 -0.2310450E+00  0.1895571E+00  0.2281957E+01  0.1237265E+00 -0.1436094E+00
  0.9665100E+01  0.2931880E+01 -0.2310450E+00  0.2048058E+00  0.2262105E+01  0.1305731E+00 -0.1577850E+00
  0.9331180E+01  0.3865100E+01 -0.2310450E+00  0.2173173E+00  0.2248965E+01  0.1363379E+00 -0.1692300E+00
  0.8907400E+01  0.4761110E+01 -0.2310450E+00  0.2270129E+00  0.2240924E+01  0.1409945E+00 -0.1779197E+00
  0.8397840E+01  0.5611260E+01 -0.2310450E+00  0.2339973E+00  0.2236309E+01  0.1444845E+00 -0.1840623E+00
  0.7807410E+01  0.6407370E+01 -0.2310450E+00  0.2386742E+00  0.2232806E+01  0.1467139E+00 -0.1882562E+00
  0.7141780E+01  0.7141780E+01 -0.2310450E+00  0.2402656E+00  0.2231528E+01  0.1474496E+00 -0.1897002E+00
  0.6407370E+01  0.7807410E+01 -0.2310450E+00  0.2386743E+00  0.2232806E+01  0.1467140E+00 -0.1882564E+00
  0.5611260E+01  0.8397840E+01 -0.2310450E+00  0.2339976E+00  0.2236309E+01  0.1444848E+00 -0.1840626E+00
  0.4761110E+01  0.8907410E+01 -0.2310450E+00  0.2270127E+00  0.2240924E+01  0.1409945E+00 -0.1779195E+00
  0.3865100E+01  0.9331180E+01 -0.2310450E+00  0.2173172E+00  0.2248965E+01  0.1363378E+00 -0.1692299E+00
  0.2931870E+01  0.9665100E+01 -0.2310450E+00  0.2048059E+00  0.2262105E+01  0.1305732E+00 -0.1577850E+00
  0.1970410E+01  0.9905930E+01 -0.2310450E+00  0.1895574E+00  0.2281957E+01  0.1237267E+00 -0.1436096E+00
  0.9899730E+00  0.1005140E+02 -0.2310450E+00  0.1726370E+00  0.2309589E+01  0.1162531E+00 -0.1276274E+00
 -0.4414850E-06  0.1010000E+02 -0.2310450E+00  0.1542253E+00  0.2351222E+01  0.1085101E+00 -0.1095947E+00
 -0.9899740E+00  0.1005140E+02 -0.2310450E+00  0.1344758E+00  0.2415559E+01  0.1005628E+00 -0.8927962E-01
 -0.1970410E+01  0.9905930E+01 -0.2310450E+00  0.1139829E+00  0.2517239E+01  0.9247902E-01 -0.6663136E-01
 -0.2931880E+01  0.9665100E+01 -0.2310450E+00  0.9482358E-01  0.2675444E+01  0.8470645E-01 -0.4261841E-01
 -0.3865100E+01  0.9331180E+01 -0.2310450E+00  0.7959533E-01  0.2920247E+01  0.7765344E-01 -0.1747457E-01
 -0.4761110E+01  0.8907400E+01 -0.2310450E+00  0.7192136E-01 -0.3016172E+01  0.7135643E-01  0.8996776E-02
 -0.5611260E+01  0.8397840E+01 -0.2310450E+00  0.7551814E-01 -0.2630957E+01  0.6588459E-01  0.3690813E-01
 -0.6407370E+01  0.7807410E+01 -0.2310450E+00  0.8968917E-01 -0.2325598E+01  0.6145002E-01  0.6533026E-01
 -0.7141780E+01  0.7141780E+01 -0.2310450E+00  0.1102581E+00 -0.2127474E+01  0.5825689E-01  0.9361086E-01
 -0.7807410E+01  0.6407370E+01 -0.2310450E+00  0.1342643E+00 -0.2003432E+01  0.5629226E-01  0.1218937E+00
 -0.8397840E+01  0.5611260E+01 -0.2310450E+00  0.1602709E+00 -0.1924963E+01  0.5558334E-01  0.1503238E+00
 -0.8907410E+01  0.4761110E+01 -0.2310450E+00  0.1868348E+00 -0.1875210E+01  0.5600074E-01  0.1782446E+00
 -0.9331180E+01  0.3865100E+01 -0.2310450E+00  0.2126326E+00 -0.1844286E+01  0.5743051E-01  0.2047299E+00
 -0.9665100E+01  0.2931880E+01 -0.2310450E+00  0.2375469E+00 -0.1825363E+01  0.5982054E-01  0.2298914E+00
 -0.9905930E+01  0.1970410E+01 -0.2310450E+00  0.2616583E+00 -0.1814519E+01  0.6314266E-01  0.2539253E+00
 -0.1005140E+02  0.9899730E+00 -0.2310450E+00  0.2846006E+00 -0.1808559E+01  0.6703155E-01  0.2765940E+00
 -0.1010000E+02 -0.8829700E-06 -0.2310450E+00  0.3053348E+00 -0.1805957E+01  0.7114277E-01  0.2969311E+00
 -0.1005140E+02 -0.9899740E+00 -0.2310450E+00  0.3238910E+00 -0.1805833E+01  0.7542743E-01  0.3149859E+00
 -0.9905930E+01 -0.1970410E+01 -0.2310450E+00  0.3404803E+00 -0.1807436E+01  0.7982142E-01  0.3309915E+00
 -0.9665100E+01 -0.2931880E+01 -0.2310450E+00  0.3552524E+00 -0.1809423E+01  0.8397039E-01  0.3451858E+00
 -0.9331180E+01 -0.3865100E+01 -0.2310450E+00  0.3672280E+00 -0.1811422E+01  0.8751436E-01  0.3566478E+00
 -0.8907400E+01 -0.4761110E+01 -0.2310450E+00  0.3763801E+00 -0.1813470E+01  0.9044381E-01  0.3653517E+00
 -0.8397840E+01 -0.5611260E+01 -0.2310450E+00  0.3828960E+00 -0.1815313E+01  0.9269442E-01  0.3715065E+00
 -0.7807400E+01 -0.6407370E+01 -0.2310450E+00  0.3873196E+00 -0.1816296E+01  0.9413458E-01  0.3757062E+00
 -0.7141780E+01 -0.7141780E+01 -0.2310450E+00  0.3888357E+00 -0.1816562E+01  0.9460330E-01  0.3771517E+00
 -0.6407370E+01 -0.7807410E+01 -0.2310450E+00  0.3873190E+00 -0.1816296E+01  0.9413440E-01  0.3757056E+00
 -0.5611260E+01 -0.8397850E+01 -0.2310450E+00  0.3828953E+00 -0.1815314E+01  0.9269445E-01  0.3715057E+00
 -0.4761110E+01 -0.8907410E+01 -0.2310450E+00  0.3763796E+00 -0.1813470E+01  0.9044354E-01  0.3653513E+00
 -0.3865100E+01 -0.9331190E+01 -0.2310450E+00  0.3672273E+00 -0.1811422E+01  0.8751416E-01  0.3566471E+00
 -0.2931870E+01 -0.9665100E+01 -0.2310450E+00  0.3552520E+00 -0.1809423E+01  0.8397023E-01  0.3451855E+00
 -0.1970410E+01 -0.9905930E+01 -0.2310450E+00  0.3404801E+00 -0.1807437E+01  0.7982153E-01  0.3309913E+00
 -0.9899710E+00 -0.1005140E+02 -0.2310450E+00  0.3238907E+00 -0.1805834E+01  0.7542753E-01  0.3149855E+00
  0.1204410E-06 -0.1010000E+02 -0.2310450E+00  0.3053347E+00 -0.1805957E+01  0.7114264E-01  0.2969310E+00
  0.9899760E+00 -0.1005140E+02 -0.2310450E+00  0.2846002E+00 -0.1808558E+01  0.6703142E-01  0.2765937E+00
  0.1970410E+01 -0.9905930E+01 -0.2310450E+00  0.2616583E+00 -0.1814519E+01  0.6314252E-01  0.2539253E+00
  0.2931880E+01 -0.9665100E+01 -0.2310450E+00  0.2375466E+00 -0.1825364E+01  0.5982066E-01  0.2298910E+00
  0.3865100E+01 -0.9331180E+01 -0.2310450E+00  0.2126324E+00 -0.1844286E+01  0.5743049E-01  0.2047297E+00
  0.4761110E+01 -0.8907410E+01 -0.2310450E+00  0.1868346E+00 -0.1875211E+01  0.5600087E-01  0.1782444E+00
  0.5611260E+01 -0.8397840E+01 -0.2310450E+00  0.1602708E+00 -0.1924964E+01  0.5558346E-01  0.1503237E+00
  0.6407370E+01 -0.7807410E+01 -0.2310450E+00  0.1342643E+00 -0.2003431E+01  0.5629219E-01  0.1218938E+00
  0.7141780E+01 -0.7141780E+01 -0.2310450E+00  0.1102579E+00 -0.2127474E+01  0.5825684E-01  0.9361062E-01
  0.7807410E+01 -0.6407370E+01 -0.2310450E+00  0.8968921E-01 -0.2325598E+01  0.6145005E-01  0.6533028E-01
  0.8397840E+01 -0.5611260E+01 -0.2310450E+00  0.7551807E-01 -0.2630956E+01  0.6588449E-01  0.3690818E-01
  0.8907410E+01 -0.4761110E+01 -0.2310450E+00  0.7192118E-01 -0.3016173E+01  0.7135626E-01  0.8996728E-02
  0.9331180E+01 -0.3865100E+01 -0.2310450E+00  0.7959525E-01  0.2920248E+01  0.7765337E-01 -0.1747448E-01
  0.9665100E+01 -0.2931870E+01 -0.2310450E+00  0.9482387E-01  0.2675441E+01  0.8470658E-01 -0.4261879E-01
  0.9905930E+01 -0.1970410E+01 -0.2310450E+00  0.1139827E+00  0.2517238E+01  0.9247883E-01 -0.6663132E-01
  0.1005140E+02 -0.9899690E+00 -0.2310450E+00  0.1344759E+00  0.2415560E+01  0.1005630E+00 -0.8927967E-01
  0.1010000E+02  0.0000000E+00 -0.4105000E+00  0.1533348E+00  0.2350796E+01  0.1078372E+00 -0.1090078E+00
  0.1005140E+02  0.9899730E+00 -0.4105000E+00  0.1716384E+00  0.2309279E+01  0.1155413E+00 -0.1269249E+00
  0.9905930E+01  0.1970410E+01 -0.4105000E+00  0.1884970E+00  0.2281494E+01  0.1229684E+00 -0.1428632E+00
  0.9665100E+01  0.2931880E+01 -0.4105000E+00  0.2035860E+00  0.2261855E+01  0.1297563E+00 -0.1568776E+00
  0.9331180E+01  0.3865100E+01 -0.4105000E+00  0.2160615E+00  0.2248666E+01  0.1354997E+00 -0.1682926E+00
  0.8907400E+01  0.4761110E+01 -0.4105000E+00  0.2256826E+00  0.2240696E+01  0.1401280E+00 -0.1769090E+00
  0.8397840E+01  0.5611260E+01 -0.4105000E+00  0.2326874E+00  0.2235941E+01  0.1436084E+00 -0.1830849E+00
  0.7807410E+01  0.6407370E+01 -0.4105000E+00  0.2372630E+00  0.2232584E+01  0.1458047E+00 -0.1871757E+00
  0.7141780E+01  0.7141780E+01 -0.4105000E+00  0.2388757E+00  0.2231256E+01  0.1465455E+00 -0.1886425E+00
  0.6407370E+01  0.7807410E+01 -0.4105000E+00  0.2372628E+00  0.2232584E+01  0.1458047E+00 -0.1871754E+00
  0.5611260E+01  0.8397840E+01 -0.4105000E+00  0.2326874E+00  0.2235940E+01  0.1436082E+00 -0.1830850E+00
  0.4761110E+01  0.8907410E+01 -0.4105000E+00  0.2256823E+00  0.2240695E+01  0.1401277E+00 -0.1769088E+00
  0.3865100E+01  0.9331180E+01 -0.4105000E+00  0.2160616E+00  0.2248666E+01  0.1354998E+00 -0.1682927E+00
  0.2931870E+01  0.9665100E+01 -0.4105000E+00  0.2035863E+00  0.2261856E+01  0.1297565E+00 -0.1568778E+00
  0.1970410E+01  0.9905930E+01 -0.4105000E+00  0.1884970E+00  0.2281494E+01  0.1229684E+00 -0.1428632E+00
  0.9899730E+00  0.1005140E+02 -0.4105000E+00  0.1716386E+00  0.2309277E+01  0.1155411E+00 -0.1269254E+00
 -0.4414850E-06  0.1010000E+02 -0.4105000E+00  0.1533348E+00  0.2350796E+01  0.1078372E+00 -0.1090077E+00
 -0.9899740E+00  0.1005140E+02 -0.4105000E+00  0.1336644E+00  0.2415232E+01  0.9992708E-01 -0.8877367E-01
 -0.1970410E+01  0.9905930E+01 -0.4105000E+00  0.1133338E+00  0.2516448E+01  0.9189999E-01 -0.6632456E-01
 -0.2931880E+01  0.9665100E+01 -0.4105000E+00  0.9427541E-01  0.2674721E+01  0.8418614E-01 -0.4243287E-01
 -0.3865100E+01  0.9331180E+01 -0.4105000E+00  0.7910827E-01  0.2919448E+01  0.7716435E-01 -0.1742931E-01
 -0.4761110E+01  0.8907400E+01 -0.4105000E+00  0.7146187E-01 -0.3016440E+01  0.7090294E-01  0.8920332E-02
 -0.5611260E+01  0.8397840E+01 -0.4105000E+00  0.7500854E-01 -0.2631499E+01  0.6545985E-01  0.3662363E-01
 -0.6407370E+01  0.7807410E+01 -0.4105000E+00  0.8908790E-01 -0.2326035E+01  0.6106644E-01  0.6486558E-01
 -0.7141780E+01  0.7141780E+01 -0.4105000E+00  0.1095452E+00 -0.2127525E+01  0.5788492E-01  0.9300260E-01