 VARIABLES="X" "Y" "Z" "abs(eta) (m)" "angle(phi) (rad)" "PRE1" "PRE2"
ZONE N=   3200 ,E =    3136 ,F=FEPOINT,ET=QUADRILATERAL
  0.1100000E+02  0.0000000E+00  0.0000000E+00  0.7057551E-01  0.2747967E+01  0.6517822E-01 -0.2706850E-01
  0.1094700E+02  0.1078190E+01  0.0000000E+00  0.8237609E-01  0.2570424E+01  0.6930051E-01 -0.4453380E-01
  0.1078860E+02  0.2145990E+01  0.0000000E+00  0.9548408E-01  0.2451738E+01  0.7365057E-01 -0.6076843E-01
  0.1052630E+02  0.3193130E+01  0.0000000E+00  0.1089748E+00  0.2369434E+01  0.7807022E-01 -0.7602990E-01
  0.1016270E+02  0.4209520E+01  0.0000000E+00  0.1217887E+00  0.2314114E+01  0.8241856E-01 -0.8966415E-01
  0.9701130E+01  0.5185360E+01  0.0000000E+00  0.1335701E+00  0.2275820E+01  0.8656030E-01 -0.1017265E+00
  0.9146170E+01  0.6111270E+01  0.0000000E+00  0.1438814E+00  0.2249671E+01  0.9034564E-01 -0.1119800E+00
  0.8503110E+01  0.6978330E+01  0.0000000E+00  0.1530098E+00  0.2229996E+01  0.9371611E-01 -0.1209516E+00
  0.7778170E+01  0.7778170E+01  0.0000000E+00  0.1602082E+00  0.2217053E+01  0.9647771E-01 -0.1279012E+00
  0.6978330E+01  0.8503110E+01  0.0000000E+00  0.1655174E+00  0.2208607E+01  0.9855533E-01 -0.1329770E+00
  0.6111270E+01  0.9146170E+01  0.0000000E+00  0.1686936E+00  0.2204284E+01  0.9985972E-01 -0.1359617E+00
  0.5185360E+01  0.9701130E+01  0.0000000E+00  0.1703338E+00  0.2201648E+01  0.1004685E+00 -0.1375488E+00
  0.4209520E+01  0.1016270E+02  0.0000000E+00  0.1697509E+00  0.2202462E+01  0.1002362E+00 -0.1369967E+00
  0.3193130E+01  0.1052630E+02  0.0000000E+00  0.1671288E+00  0.2206203E+01  0.9919176E-01 -0.1345103E+00
  0.2145990E+01  0.1078860E+02  0.0000000E+00  0.1623299E+00  0.2213923E+01  0.9734922E-01 -0.1299004E+00
  0.1078190E+01  0.1094700E+02  0.0000000E+00  0.1560748E+00  0.2224270E+01  0.9488538E-01 -0.1239197E+00
 -0.4808250E-06  0.1100000E+02  0.0000000E+00  0.1478591E+00  0.2240437E+01  0.9177671E-01 -0.1159282E+00
 -0.1078190E+01  0.1094700E+02  0.0000000E+00  0.1379774E+00  0.2263772E+01  0.8814406E-01 -0.1061527E+00
 -0.2145990E+01  0.1078860E+02  0.0000000E+00  0.1264827E+00  0.2298126E+01  0.8409546E-01 -0.9447661E-01
 -0.3193130E+01  0.1052630E+02  0.0000000E+00  0.1141549E+00  0.2345041E+01  0.7981436E-01 -0.8161499E-01
 -0.4209520E+01  0.1016270E+02  0.0000000E+00  0.1009657E+00  0.2414149E+01  0.7540894E-01 -0.6713840E-01
 -0.5185370E+01  0.9701130E+01  0.0000000E+00  0.8761100E-01  0.2516227E+01  0.7103051E-01 -0.5128697E-01
 -0.6111270E+01  0.9146160E+01  0.0000000E+00  0.7499647E-01  0.2670204E+01  0.6681726E-01 -0.3405767E-01
 -0.6978330E+01  0.8503120E+01  0.0000000E+00  0.6487977E-01  0.2891763E+01  0.6286556E-01 -0.1604077E-01
 -0.7778170E+01  0.7778170E+01  0.0000000E+00  0.5941849E-01 -0.3092858E+01  0.5934794E-01  0.2894579E-02
 -0.8503120E+01  0.6978330E+01  0.0000000E+00  0.6069662E-01 -0.2761542E+01  0.5636567E-01  0.2251646E-01
 -0.9146170E+01  0.6111270E+01  0.0000000E+00  0.6884833E-01 -0.2472530E+01  0.5400486E-01  0.4270324E-01
 -0.9701130E+01  0.5185360E+01  0.0000000E+00  0.8189983E-01 -0.2262274E+01  0.5222557E-01  0.6308781E-01
 -0.1016270E+02  0.4209520E+01  0.0000000E+00  0.9790738E-01 -0.2120651E+01  0.5116277E-01  0.8347590E-01
 -0.1052630E+02  0.3193130E+01  0.0000000E+00  0.1154688E+00 -0.2026454E+01  0.5081242E-01  0.1036877E+00
 -0.1078860E+02  0.2145990E+01  0.0000000E+00  0.1336924E+00 -0.1963463E+01  0.5115788E-01  0.1235174E+00
 -0.1094700E+02  0.1078190E+01  0.0000000E+00  0.1520818E+00 -0.1920130E+01  0.5205336E-01  0.1428962E+00
 -0.1100000E+02 -0.9616510E-06  0.0000000E+00  0.1700018E+00 -0.1891060E+01  0.5351938E-01  0.1613576E+00
 -0.1094700E+02 -0.1078190E+01  0.0000000E+00  0.1872292E+00 -0.1871506E+01  0.5545697E-01  0.1788275E+00
 -0.1078860E+02 -0.2146000E+01  0.0000000E+00  0.2034392E+00 -0.1858674E+01  0.5776005E-01  0.1950674E+00
 -0.1052630E+02 -0.3193130E+01  0.0000000E+00  0.2187988E+00 -0.1849868E+01  0.6027104E-01  0.2103339E+00
 -0.1016270E+02 -0.4209520E+01  0.0000000E+00  0.2326359E+00 -0.1844543E+01  0.6289090E-01  0.2239736E+00
 -0.9701130E+01 -0.5185360E+01  0.0000000E+00  0.2449591E+00 -0.1841455E+01  0.6549370E-01  0.2360414E+00
 -0.9146160E+01 -0.6111270E+01  0.0000000E+00  0.2555011E+00 -0.1839987E+01  0.6795096E-01  0.2462995E+00
 -0.8503110E+01 -0.6978330E+01  0.0000000E+00  0.2647487E+00 -0.1839116E+01  0.7018789E-01  0.2552754E+00
 -0.7778170E+01 -0.7778180E+01  0.0000000E+00  0.2719477E+00 -0.1838953E+01  0.7205379E-01  0.2622285E+00
 -0.6978330E+01 -0.8503110E+01  0.0000000E+00  0.2772207E+00 -0.1839035E+01  0.7347266E-01  0.2673071E+00
 -0.6111270E+01 -0.9146170E+01  0.0000000E+00  0.2803384E+00 -0.1839297E+01  0.7436997E-01  0.2702938E+00
 -0.5185360E+01 -0.9701130E+01  0.0000000E+00  0.2819813E+00 -0.1839254E+01  0.7479393E-01  0.2718811E+00
 -0.4209510E+01 -0.1016270E+02  0.0000000E+00  0.2814069E+00 -0.1839227E+01  0.7463448E-01  0.2713293E+00
 -0.3193130E+01 -0.1052630E+02  0.0000000E+00  0.2788160E+00 -0.1839095E+01  0.7391176E-01  0.2688409E+00
 -0.2145990E+01 -0.1078860E+02  0.0000000E+00  0.2740332E+00 -0.1839101E+01  0.7264543E-01  0.2642288E+00
 -0.1078190E+01 -0.1094700E+02  0.0000000E+00  0.2678203E+00 -0.1839001E+01  0.7097269E-01  0.2582452E+00
  0.1311740E-06 -0.1100000E+02  0.0000000E+00  0.2595598E+00 -0.1839445E+01  0.6889459E-01  0.2502495E+00
  0.1078190E+01 -0.1094700E+02  0.0000000E+00  0.2494988E+00 -0.1840655E+01  0.6651522E-01  0.2404691E+00
  0.2145990E+01 -0.1078860E+02  0.0000000E+00  0.2375544E+00 -0.1843309E+01  0.6393822E-01  0.2287881E+00
  0.3193140E+01 -0.1052630E+02  0.0000000E+00  0.2244546E+00 -0.1847436E+01  0.6130419E-01  0.2159205E+00
  0.4209520E+01 -0.1016270E+02  0.0000000E+00  0.2098258E+00 -0.1854486E+01  0.5873018E-01  0.2014389E+00
  0.5185360E+01 -0.9701130E+01  0.0000000E+00  0.1939477E+00 -0.1865566E+01  0.5634550E-01  0.1855826E+00
  0.6111270E+01 -0.9146160E+01  0.0000000E+00  0.1768813E+00 -0.1882674E+01  0.5427540E-01  0.1683484E+00
  0.6978330E+01 -0.8503110E+01  0.0000000E+00  0.1592557E+00 -0.1907242E+01  0.5257569E-01  0.1503269E+00
  0.7778180E+01 -0.7778170E+01  0.0000000E+00  0.1410887E+00 -0.1943780E+01  0.5141206E-01  0.1313881E+00
  0.8503120E+01 -0.6978320E+01  0.0000000E+00  0.1227919E+00 -0.1997860E+01  0.5086042E-01  0.1117634E+00
  0.9146170E+01 -0.6111270E+01  0.0000000E+00  0.1048131E+00 -0.2078836E+01  0.5098797E-01  0.9157517E-01
  0.9701130E+01 -0.5185360E+01  0.0000000E+00  0.8799586E-01 -0.2199120E+01  0.5172304E-01  0.7118988E-01
  0.1016270E+02 -0.4209520E+01  0.0000000E+00  0.7354412E-01 -0.2379035E+01  0.5317764E-01  0.5080233E-01
  0.1052630E+02 -0.3193130E+01  0.0000000E+00  0.6321951E-01 -0.2636495E+01  0.5532510E-01  0.3059149E-01
  0.1078860E+02 -0.2145990E+01  0.0000000E+00  0.5911325E-01 -0.2958474E+01  0.5812491E-01  0.1076435E-01
  0.1094700E+02 -0.1078180E+01  0.0000000E+00  0.6201550E-01  0.3002282E+01  0.6141470E-01 -0.8611497E-02
  0.1100000E+02  0.0000000E+00 -0.2568960E-01  0.7052919E-01  0.2747856E+01  0.6513243E-01 -0.2705794E-01
  0.1094700E+02  0.1078190E+01 -0.2568960E-01  0.8232505E-01  0.2570295E+01  0.6925184E-01 -0.4451514E-01
  0.1078860E+02  0.2145990E+01 -0.2568960E-01  0.9542945E-01  0.2451580E+01  0.7359882E-01 -0.6074531E-01
  0.1052630E+02  0.3193130E+01 -0.2568960E-01  0.1089082E+00  0.2369340E+01  0.7801544E-01 -0.7599075E-01
  0.1016270E+02  0.4209520E+01 -0.2568960E-01  0.1217131E+00  0.2314041E+01  0.8236094E-01 -0.8961453E-01
  0.9701130E+01  0.5185360E+01 -0.2568960E-01  0.1334902E+00  0.2275737E+01  0.8650016E-01 -0.1016728E+00
  0.9146170E+01  0.6111270E+01 -0.2568960E-01  0.1438023E+00  0.2249562E+01  0.9028381E-01 -0.1119282E+00
  0.8503110E+01  0.6978330E+01 -0.2568960E-01  0.1529174E+00  0.2229922E+01  0.9365062E-01 -0.1208855E+00
  0.7778170E+01  0.7778170E+01 -0.2568960E-01  0.1601087E+00  0.2216991E+01  0.9640989E-01 -0.1278277E+00
  0.6978330E+01  0.8503110E+01 -0.2568960E-01  0.1654181E+00  0.2208538E+01  0.9848704E-01 -0.1329040E+00
  0.6111270E+01  0.9146170E+01 -0.2568960E-01  0.1686012E+00  0.2204188E+01  0.9979203E-01 -0.1358967E+00
  0.5185360E+01  0.9701130E+01 -0.2568960E-01  0.1702314E+00  0.2201581E+01  0.1003988E+00 -0.1374729E+00
  0.4209520E+01  0.1016270E+02 -0.2568960E-01  0.1696455E+00  0.2202401E+01  0.1001656E+00 -0.1369177E+00
  0.3193130E+01  0.1052630E+02 -0.2568960E-01  0.1670281E+00  0.2206134E+01  0.9912277E-01 -0.1344361E+00
  0.2145990E+01  0.1078860E+02 -0.2568960E-01  0.1622410E+00  0.2213824E+01  0.9728315E-01 -0.1298388E+00
  0.1078190E+01  0.1094700E+02 -0.2568960E-01  0.1559815E+00  0.2224197E+01  0.9481964E-01 -0.1238526E+00
 -0.4808250E-06  0.1100000E+02 -0.2568960E-01  0.1477672E+00  0.2240371E+01  0.9171209E-01 -0.1158621E+00
 -0.1078190E+01  0.1094700E+02 -0.2568960E-01  0.1378940E+00  0.2263692E+01  0.8808230E-01 -0.1060956E+00
 -0.2145990E+01  0.1078860E+02 -0.2568960E-01  0.1264127E+00  0.2298002E+01  0.8403727E-01 -0.9443474E-01
 -0.3193130E+01  0.1052630E+02 -0.2568960E-01  0.1140862E+00  0.2344947E+01  0.7975862E-01 -0.8157335E-01
 -0.4209520E+01  0.1016270E+02 -0.2568960E-01  0.1009025E+00  0.2414060E+01  0.7535578E-01 -0.6710306E-01
 -0.5185370E+01  0.9701130E+01 -0.2568960E-01  0.8755636E-01  0.2516111E+01  0.7098029E-01 -0.5126320E-01
 -0.6111270E+01  0.9146160E+01 -0.2568960E-01  0.7495037E-01  0.2670007E+01  0.6676946E-01 -0.3404992E-01
 -0.6978330E+01  0.8503120E+01 -0.2568960E-01  0.6483629E-01  0.2891617E+01  0.6282108E-01 -0.1603923E-01
 -0.7778170E+01  0.7778170E+01 -0.2568960E-01  0.5937655E-01 -0.3092961E+01  0.5930635E-01  0.2886453E-02
 -0.8503120E+01  0.6978330E+01 -0.2568960E-01  0.6065178E-01 -0.2761612E+01  0.5632560E-01  0.2249590E-01
 -0.9146170E+01  0.6111270E+01 -0.2568960E-01  0.6879549E-01 -0.2472563E+01  0.5396484E-01  0.4266868E-01
 -0.9701130E+01  0.5185360E+01 -0.2568960E-01  0.8184030E-01 -0.2262284E+01  0.5218825E-01  0.6304142E-01
 -0.1016270E+02  0.4209520E+01 -0.2568960E-01  0.9783885E-01 -0.2120649E+01  0.5112683E-01  0.8341755E-01
 -0.1052630E+02  0.3193130E+01 -0.2568960E-01  0.1153904E+00 -0.2026437E+01  0.5077612E-01  0.1036182E+00
 -0.1078860E+02  0.2145990E+01 -0.2568960E-01  0.1336046E+00 -0.1963425E+01  0.5111963E-01  0.1234382E+00
 -0.1094700E+02  0.1078190E+01 -0.2568960E-01  0.1519804E+00 -0.1920113E+01  0.5201623E-01  0.1428018E+00
 -0.1100000E+02 -0.9616510E-06 -0.2568960E-01  0.1698887E+00 -0.1891046E+01  0.5348151E-01  0.1612510E+00
 -0.1094700E+02 -0.1078190E+01 -0.2568960E-01  0.1871077E+00 -0.1871487E+01  0.5541755E-01  0.1787126E+00
 -0.1078860E+02 -0.2146000E+01 -0.2568960E-01  0.2033131E+00 -0.1858645E+01  0.5771857E-01  0.1949481E+00
 -0.1052630E+02 -0.3193130E+01 -0.2568960E-01  0.2186570E+00 -0.1849849E+01  0.6022807E-01  0.2101987E+00
 -0.1016270E+02 -0.4209520E+01 -0.2568960E-01  0.2324838E+00 -0.1844528E+01  0.6284632E-01  0.2238282E+00
 -0.9701130E+01 -0.5185360E+01 -0.2568960E-01  0.2448021E+00 -0.1841437E+01  0.6544758E-01  0.2358913E+00
 -0.9146160E+01 -0.6111270E+01 -0.2568960E-01  0.2553464E+00 -0.1839963E+01  0.6790387E-01  0.2461520E+00
 -0.8503110E+01 -0.6978330E+01 -0.2568960E-01  0.2645788E+00 -0.1839098E+01  0.7013839E-01  0.2551128E+00
 -0.7778170E+01 -0.7778180E+01 -0.2568960E-01  0.2717703E+00 -0.1838937E+01  0.7200257E-01  0.2620586E+00
 -0.6978330E+01 -0.8503110E+01 -0.2568960E-01  0.2770437E+00 -0.1839018E+01  0.7342120E-01  0.2671377E+00
 -0.6111270E+01 -0.9146170E+01 -0.2568960E-01  0.2801691E+00 -0.1839276E+01  0.7431918E-01  0.2701322E+00
 -0.5185360E+01 -0.9701130E+01 -0.2568960E-01  0.2818016E+00 -0.1839236E+01  0.7474137E-01  0.2717091E+00
 -0.4209510E+01 -0.1016270E+02 -0.2568960E-01  0.2812236E+00 -0.1839211E+01  0.7458144E-01  0.2711537E+00
 -0.3193130E+01 -0.1052630E+02 -0.2568960E-01  0.2786382E+00 -0.1839077E+01  0.7385977E-01  0.2686708E+00
 -0.2145990E+01 -0.1078860E+02 -0.2568960E-01  0.2738677E+00 -0.1839078E+01  0.7259548E-01  0.2640708E+00
 -0.1078190E+01 -0.1094700E+02 -0.2568960E-01  0.2676489E+00 -0.1838985E+01  0.7092293E-01  0.2580812E+00
  0.1311740E-06 -0.1100000E+02 -0.2568960E-01  0.2593905E+00 -0.1839429E+01  0.6884578E-01  0.2500874E+00
  0.1078190E+01 -0.1094700E+02 -0.2568960E-01  0.2493387E+00 -0.1840637E+01  0.6646807E-01  0.2403160E+00
  0.2145990E+01 -0.1078860E+02 -0.2568960E-01  0.2374092E+00 -0.1843282E+01  0.6389310E-01  0.2286500E+00
  0.3193140E+01 -0.1052630E+02 -0.2568960E-01  0.2243105E+00 -0.1847418E+01  0.6126092E-01  0.2157830E+00
  0.4209520E+01 -0.1016270E+02 -0.2568960E-01  0.2096880E+00 -0.1854472E+01  0.5868870E-01  0.2013074E+00
  0.5185360E+01 -0.9701130E+01 -0.2568960E-01  0.1938212E+00 -0.1865547E+01  0.5630523E-01  0.1854626E+00
  0.6111270E+01 -0.9146160E+01 -0.2568960E-01  0.1767699E+00 -0.1882641E+01  0.5423565E-01  0.1682442E+00
  0.6978330E+01 -0.8503110E+01 -0.2568960E-01  0.1591512E+00 -0.1907222E+01  0.5253827E-01  0.1502293E+00
  0.7778180E+01 -0.7778170E+01 -0.2568960E-01  0.1409937E+00 -0.1943768E+01  0.5137590E-01  0.1313001E+00
  0.8503120E+01 -0.6978320E+01 -0.2568960E-01  0.1227079E+00 -0.1997845E+01  0.5082396E-01  0.1116878E+00
  0.9146170E+01 -0.6111270E+01 -0.2568960E-01  0.1047407E+00 -0.2078804E+01  0.5094984E-01  0.9151353E-01
  0.9701130E+01 -0.5185360E+01 -0.2568960E-01  0.8793373E-01 -0.2199115E+01  0.5168614E-01  0.7113989E-01
  0.1016270E+02 -0.4209520E+01 -0.2568960E-01  0.7349080E-01 -0.2379057E+01  0.5314025E-01  0.5076427E-01
  0.1052630E+02 -0.3193130E+01 -0.2568960E-01  0.6317223E-01 -0.2636562E+01  0.5528579E-01  0.3056488E-01
  0.1078860E+02 -0.2145990E+01 -0.2568960E-01  0.5906826E-01 -0.2958626E+01  0.5808230E-01  0.1074735E-01
  0.1094700E+02 -0.1078180E+01 -0.2568960E-01  0.6197217E-01  0.3002155E+01  0.6137068E-01 -0.8613312E-02
  0.1100000E+02  0.0000000E+00 -0.1027320E+00  0.7038363E-01  0.2747668E+01  0.6499294E-01 -0.2701431E-01
  0.1094700E+02  0.1078190E+01 -0.1027320E+00  0.8216338E-01  0.2570026E+01  0.6910390E-01 -0.4444628E-01
  0.1078860E+02  0.2145990E+01 -0.1027320E+00  0.9525879E-01  0.2451173E+01  0.7344250E-01 -0.6066660E-01
  0.1052630E+02  0.3193130E+01 -0.1027320E+00  0.1086996E+00  0.2369156E+01  0.7785203E-01 -0.7585954E-01
  0.1016270E+02  0.4209520E+01 -0.1027320E+00  0.1214727E+00  0.2313942E+01  0.8218937E-01 -0.8944561E-01
  0.9701130E+01  0.5185360E+01 -0.1027320E+00  0.1332382E+00  0.2275596E+01  0.8632250E-01 -0.1014930E+00
  0.9146170E+01  0.6111270E+01 -0.1027320E+00  0.1435574E+00  0.2249322E+01  0.9010328E-01 -0.1117593E+00
  0.8503110E+01  0.6978330E+01 -0.1027320E+00  0.1526285E+00  0.2229811E+01  0.9346025E-01 -0.1206675E+00
  0.7778170E+01  0.7778170E+01 -0.1027320E+00  0.1597930E+00  0.2216935E+01  0.9621259E-01 -0.1275811E+00
  0.6978330E+01  0.8503110E+01 -0.1027320E+00  0.1651066E+00  0.2208442E+01  0.9828889E-01 -0.1326631E+00
  0.6111270E+01  0.9146170E+01 -0.1027320E+00  0.1683151E+00  0.2204005E+01  0.9959783E-01 -0.1356844E+00
  0.5185360E+01  0.9701130E+01 -0.1027320E+00  0.1699106E+00  0.2201490E+01  0.1001972E+00 -0.1372230E+00
  0.4209520E+01  0.1016270E+02 -0.1027320E+00  0.1693110E+00  0.2202351E+01  0.9996125E-01 -0.1366527E+00
  0.3193130E+01  0.1052630E+02 -0.1027320E+00  0.1667130E+00  0.2206040E+01  0.9892318E-01 -0.1341918E+00
  0.2145990E+01  0.1078860E+02 -0.1027320E+00  0.1619655E+00  0.2213627E+01  0.9709239E-01 -0.1296376E+00
  0.1078190E+01  0.1094700E+02 -0.1027320E+00  0.1556878E+00  0.2224089E+01  0.9462768E-01 -0.1236296E+00
 -0.4808250E-06  0.1100000E+02 -0.1027320E+00  0.1474760E+00  0.2240302E+01  0.9152332E-01 -0.1156401E+00
 -0.1078190E+01  0.1094700E+02 -0.1027320E+00  0.1376329E+00  0.2263561E+01  0.8790161E-01 -0.1059062E+00
 -0.2145990E+01  0.1078860E+02 -0.1027320E+00  0.1261955E+00  0.2297714E+01  0.8386566E-01 -0.9429669E-01
 -0.3193130E+01  0.1052630E+02 -0.1027320E+00  0.1138699E+00  0.2344767E+01  0.7959279E-01 -0.8143302E-01
 -0.4209520E+01  0.1016270E+02 -0.1027320E+00  0.1007017E+00  0.2413934E+01  0.7519738E-01 -0.6697903E-01
 -0.5185370E+01  0.9701130E+01 -0.1027320E+00  0.8738450E-01  0.2515872E+01  0.7082877E-01 -0.5117946E-01
 -0.6111270E+01  0.9146160E+01 -0.1027320E+00  0.7480549E-01  0.2669501E+01  0.6662318E-01 -0.3401783E-01
 -0.6978330E+01  0.8503120E+01 -0.1027320E+00  0.6470048E-01  0.2891304E+01  0.6268447E-01 -0.1602527E-01
 -0.7778170E+01  0.7778170E+01 -0.1027320E+00  0.5924751E-01 -0.3093127E+01  0.5917794E-01  0.2870310E-02
 -0.8503120E+01  0.6978330E+01 -0.1027320E+00  0.6051379E-01 -0.2761727E+01  0.5620004E-01  0.2243824E-01
 -0.9146170E+01  0.6111270E+01 -0.1027320E+00  0.6863348E-01 -0.2472587E+01  0.5383876E-01  0.4256693E-01
 -0.9701130E+01  0.5185360E+01 -0.1027320E+00  0.8165944E-01 -0.2262251E+01  0.5207083E-01  0.6290384E-01
 -0.1016270E+02  0.4209520E+01 -0.1027320E+00  0.9762951E-01 -0.2120612E+01  0.5101438E-01  0.8324094E-01
 -0.1052630E+02  0.3193130E+01 -0.1027320E+00  0.1151492E+00 -0.2026362E+01  0.5066223E-01  0.1034054E+00
 -0.1078860E+02  0.2145990E+01 -0.1027320E+00  0.1333354E+00 -0.1963297E+01  0.5100085E-01  0.1231960E+00
 -0.1094700E+02  0.1078190E+01 -0.1027320E+00  0.1516686E+00 -0.1920053E+01  0.5190093E-01  0.1425119E+00
 -0.1100000E+02 -0.9616510E-06 -0.1027320E+00  0.1695373E+00 -0.1891018E+01  0.5336645E-01  0.1609190E+00
 -0.1094700E+02 -0.1078190E+01 -0.1027320E+00  0.1867313E+00 -0.1871442E+01  0.5529812E-01  0.1783555E+00
 -0.1078860E+02 -0.2146000E+01 -0.1027320E+00  0.2029258E+00 -0.1858570E+01  0.5759397E-01  0.1945811E+00
 -0.1052630E+02 -0.3193130E+01 -0.1027320E+00  0.2182188E+00 -0.1849820E+01  0.6010121E-01  0.2097791E+00
 -0.1016270E+02 -0.4209520E+01 -0.1027320E+00  0.2320078E+00 -0.1844518E+01  0.6271549E-01  0.2233706E+00
 -0.9701130E+01 -0.5185360E+01 -0.1027320E+00  0.2443156E+00 -0.1841420E+01  0.6531341E-01  0.2354236E+00
 -0.9146160E+01 -0.6111270E+01 -0.1027320E+00  0.2548690E+00 -0.1839927E+01  0.6776792E-01  0.2456944E+00
 -0.8503110E+01 -0.6978330E+01 -0.1027320E+00  0.2640531E+00 -0.1839089E+01  0.6999659E-01  0.2546066E+00
 -0.7778170E+01 -0.7778180E+01 -0.1027320E+00  0.2712164E+00 -0.1838939E+01  0.7185631E-01  0.2615243E+00
 -0.6978330E+01 -0.8503110E+01 -0.1027320E+00  0.2764945E+00 -0.1839013E+01  0.7327446E-01  0.2666085E+00
 -0.6111270E+01 -0.9146170E+01 -0.1027320E+00  0.2796486E+00 -0.1839256E+01  0.7417580E-01  0.2696317E+00
 -0.5185360E+01 -0.9701130E+01 -0.1027320E+00  0.2812427E+00 -0.1839234E+01  0.7459260E-01  0.2711705E+00
 -0.4209510E+01 -0.1016270E+02 -0.1027320E+00  0.2806501E+00 -0.1839216E+01  0.7443068E-01  0.2706004E+00
 -0.3193130E+01 -0.1052630E+02 -0.1027320E+00  0.2780857E+00 -0.1839074E+01  0.7371237E-01  0.2681383E+00
 -0.2145990E+01 -0.1078860E+02 -0.1027320E+00  0.2733581E+00 -0.1839054E+01  0.7245418E-01  0.2635812E+00
 -0.1078190E+01 -0.1094700E+02 -0.1027320E+00  0.2671185E+00 -0.1838977E+01  0.7078033E-01  0.2575703E+00
  0.1311740E-06 -0.1100000E+02 -0.1027320E+00  0.2588610E+00 -0.1839428E+01  0.6870483E-01  0.2495769E+00
  0.1078190E+01 -0.1094700E+02 -0.1027320E+00  0.2488417E+00 -0.1840621E+01  0.6633182E-01  0.2398380E+00
  0.2145990E+01 -0.1078860E+02 -0.1027320E+00  0.2369629E+00 -0.1843234E+01  0.6376189E-01  0.2282232E+00
  0.3193140E+01 -0.1052630E+02 -0.1027320E+00  0.2238633E+00 -0.1847392E+01  0.6113307E-01  0.2153544E+00
  0.4209520E+01 -0.1016270E+02 -0.1027320E+00  0.2092576E+00 -0.1854455E+01  0.5856489E-01  0.2008952E+00
  0.5185360E+01 -0.9701130E+01 -0.1027320E+00  0.1934301E+00 -0.1865507E+01  0.5618427E-01  0.1850906E+00
  0.6111270E+01 -0.9146160E+01 -0.1027320E+00  0.1764282E+00 -0.1882545E+01  0.5411472E-01  0.1679241E+00
  0.6978330E+01 -0.8503110E+01 -0.1027320E+00  0.1588278E+00 -0.1907164E+01  0.5242279E-01  0.1499271E+00
  0.7778180E+01 -0.7778170E+01 -0.1027320E+00  0.1406993E+00 -0.1943732E+01  0.5126389E-01  0.1310279E+00
  0.8503120E+01 -0.6978320E+01 -0.1027320E+00  0.1224508E+00 -0.1997779E+01  0.5071006E-01  0.1114571E+00
  0.9146170E+01 -0.6111270E+01 -0.1027320E+00  0.1045194E+00 -0.2078671E+01  0.5082997E-01  0.9132702E-01
  0.9701130E+01 -0.5185360E+01 -0.1027320E+00  0.8774347E-01 -0.2199049E+01  0.5156967E-01  0.7098933E-01
  0.1016270E+02 -0.4209520E+01 -0.1027320E+00  0.7332949E-01 -0.2379060E+01  0.5302373E-01  0.5065272E-01
  0.1052630E+02 -0.3193130E+01 -0.1027320E+00  0.6302801E-01 -0.2636666E+01  0.5516273E-01  0.3048938E-01
  0.1078860E+02 -0.2145990E+01 -0.1027320E+00  0.5892943E-01 -0.2958987E+01  0.5794965E-01  0.1070117E-01
  0.1094700E+02 -0.1078180E+01 -0.1027320E+00  0.6183886E-01  0.3001885E+01  0.6123634E-01 -0.8611287E-02
  0.1100000E+02  0.0000000E+00 -0.2310450E+00  0.7014731E-01  0.2747316E+01  0.6476523E-01 -0.2694641E-01
  0.1094700E+02  0.1078190E+01 -0.2310450E+00  0.8190007E-01  0.2569578E+01  0.6886257E-01 -0.4433471E-01
  0.1078860E+02  0.2145990E+01 -0.2310450E+00  0.9498095E-01  0.2450469E+01  0.7318573E-01 -0.6054115E-01
  0.1052630E+02  0.3193130E+01 -0.2310450E+00  0.1083560E+00  0.2368852E+01  0.7758287E-01 -0.7564338E-01
  0.1016270E+02  0.4209520E+01 -0.2310450E+00  0.1210805E+00  0.2313746E+01  0.8190652E-01 -0.8917296E-01
  0.9701130E+01  0.5185360E+01 -0.2310450E+00  0.1328242E+00  0.2275348E+01  0.8602925E-01 -0.1011990E+00
  0.9146170E+01  0.6111270E+01 -0.2310450E+00  0.1431572E+00  0.2248894E+01  0.8980440E-01 -0.1114862E+00
  0.8503110E+01  0.6978330E+01 -0.2310450E+00  0.1521519E+00  0.2229611E+01  0.9314442E-01 -0.1203093E+00
  0.7778170E+01  0.7778170E+01 -0.2310450E+00  0.1592788E+00  0.2216798E+01  0.9588563E-01 -0.1271836E+00
  0.6978330E+01  0.8503110E+01 -0.2310450E+00  0.1645931E+00  0.2208261E+01  0.9795925E-01 -0.1322682E+00
  0.6111270E+01  0.9146170E+01 -0.2310450E+00  0.1678483E+00  0.2203661E+01  0.9927513E-01 -0.1353422E+00
  0.5185360E+01  0.9701130E+01 -0.2310450E+00  0.1693812E+00  0.2201319E+01  0.9986156E-01 -0.1368125E+00
  0.4209520E+01  0.1016270E+02 -0.2310450E+00  0.1687657E+00  0.2202226E+01  0.9962229E-01 -0.1362251E+00
  0.3193130E+01  0.1052630E+02 -0.2310450E+00  0.1661933E+00  0.2205864E+01  0.9859117E-01 -0.1337909E+00
  0.2145990E+01  0.1078860E+02 -0.2310450E+00  0.1615157E+00  0.2213266E+01  0.9677604E-01 -0.1293124E+00
  0.1078190E+01  0.1094700E+02 -0.2310450E+00  0.1552036E+00  0.2223893E+01  0.9430923E-01 -0.1232636E+00
 -0.4808250E-06  0.1100000E+02 -0.2310450E+00  0.1470012E+00  0.2240149E+01  0.9121107E-01 -0.1152818E+00
 -0.1078190E+01  0.1094700E+02 -0.2310450E+00  0.1372020E+00  0.2263331E+01  0.8760216E-01 -0.1055948E+00
 -0.2145990E+01  0.1078860E+02 -0.2310450E+00  0.1258409E+00  0.2297208E+01  0.8358247E-01 -0.9407391E-01
 -0.3193130E+01  0.1052630E+02 -0.2310450E+00  0.1135146E+00  0.2344462E+01  0.7931972E-01 -0.8120307E-01
 -0.4209520E+01  0.1016270E+02 -0.2310450E+00  0.1003752E+00  0.2413686E+01  0.7493696E-01 -0.6678043E-01
 -0.5185370E+01  0.9701130E+01 -0.2310450E+00  0.8710265E-01  0.2515486E+01  0.7058062E-01 -0.5104163E-01
 -0.6111270E+01  0.9146160E+01 -0.2310450E+00  0.7457040E-01  0.2668625E+01  0.6638409E-01 -0.3396906E-01
 -0.6978330E+01  0.8503120E+01 -0.2310450E+00  0.6448013E-01  0.2890768E+01  0.6246242E-01 -0.1600415E-01
 -0.7778170E+01  0.7778170E+01 -0.2310450E+00  0.5903720E-01 -0.3093461E+01  0.5896883E-01  0.2840441E-02
 -0.8503120E+01  0.6978330E+01 -0.2310450E+00  0.6029017E-01 -0.2761947E+01  0.5599727E-01  0.2234299E-01
 -0.9146170E+01  0.6111270E+01 -0.2310450E+00  0.6836778E-01 -0.2472680E+01  0.5363428E-01  0.4239714E-01
 -0.9701130E+01  0.5185360E+01 -0.2310450E+00  0.8136199E-01 -0.2262257E+01  0.5188156E-01  0.6267437E-01
 -0.1016270E+02  0.4209520E+01 -0.2310450E+00  0.9728497E-01 -0.2120588E+01  0.5083234E-01  0.8294842E-01
 -0.1052630E+02  0.3193130E+01 -0.2310450E+00  0.1147524E+00 -0.2026272E+01  0.5047840E-01  0.1030536E+00
 -0.1078860E+02  0.2145990E+01 -0.2310450E+00  0.1328924E+00 -0.1963104E+01  0.5080759E-01  0.1227965E+00
 -0.1094700E+02  0.1078190E+01 -0.2310450E+00  0.1511520E+00 -0.1919982E+01  0.5171404E-01  0.1420302E+00
 -0.1100000E+02 -0.9616510E-06 -0.2310450E+00  0.1689599E+00 -0.1890982E+01  0.5317896E-01  0.1603728E+00
 -0.1094700E+02 -0.1078190E+01 -0.2310450E+00  0.1861101E+00 -0.1871384E+01  0.5510383E-01  0.1777654E+00
 -0.1078860E+02 -0.2146000E+01 -0.2310450E+00  0.2022885E+00 -0.1858448E+01  0.5738947E-01  0.1939770E+00
 -0.1052630E+02 -0.3193130E+01 -0.2310450E+00  0.2174935E+00 -0.1849778E+01  0.5989267E-01  0.2090845E+00
 -0.1016270E+02 -0.4209520E+01 -0.2310450E+00  0.2312266E+00 -0.1844500E+01  0.6250028E-01  0.2226196E+00
 -0.9701130E+01 -0.5185360E+01 -0.2310450E+00  0.2435113E+00 -0.1841392E+01  0.6509190E-01  0.2346503E+00
 -0.9146160E+01 -0.6111270E+01 -0.2310450E+00  0.2540841E+00 -0.1839859E+01  0.6754272E-01  0.2449423E+00
 -0.8503110E+01 -0.6978330E+01 -0.2310450E+00  0.2631836E+00 -0.1839068E+01  0.6976093E-01  0.2537696E+00
 -0.7778170E+01 -0.7778180E+01 -0.2310450E+00  0.2703067E+00 -0.1838932E+01  0.7161349E-01  0.2606477E+00
 -0.6978330E+01 -0.8503110E+01 -0.2310450E+00  0.2755875E+00 -0.1839000E+01  0.7303054E-01  0.2657348E+00
 -0.6111270E+01 -0.9146170E+01 -0.2310450E+00  0.2787935E+00 -0.1839211E+01  0.7393693E-01  0.2688107E+00
 -0.5185360E+01 -0.9701130E+01 -0.2310450E+00  0.2803200E+00 -0.1839222E+01  0.7434472E-01  0.2702816E+00
 -0.4209510E+01 -0.1016270E+02 -0.2310450E+00  0.2797099E+00 -0.1839211E+01  0.7417995E-01  0.2696942E+00
 -0.3193130E+01 -0.1052630E+02 -0.2310450E+00  0.2771721E+00 -0.1839060E+01  0.7346655E-01  0.2672584E+00
 -0.2145990E+01 -0.1078860E+02 -0.2310450E+00  0.2725208E+00 -0.1839004E+01  0.7221888E-01  0.2627774E+00
 -0.1078190E+01 -0.1094700E+02 -0.2310450E+00  0.2662414E+00 -0.1838959E+01  0.7054345E-01  0.2567257E+00
  0.1311740E-06 -0.1100000E+02 -0.2310450E+00  0.2579919E+00 -0.1839417E+01  0.6847144E-01  0.2487397E+00
  0.1078190E+01 -0.1094700E+02 -0.2310450E+00  0.2480201E+00 -0.1840593E+01  0.6610619E-01  0.2390480E+00
  0.2145990E+01 -0.1078860E+02 -0.2310450E+00  0.2362297E+00 -0.1843147E+01  0.6354497E-01  0.2275226E+00
  0.3193140E+01 -0.1052630E+02 -0.2310450E+00  0.2231241E+00 -0.1847353E+01  0.6092296E-01  0.2146456E+00
  0.4209520E+01 -0.1016270E+02 -0.2310450E+00  0.2085506E+00 -0.1854430E+01  0.5836206E-01  0.2002179E+00
  0.5185360E+01 -0.9701130E+01 -0.2310450E+00  0.1927827E+00 -0.1865453E+01  0.5598636E-01  0.1844742E+00
  0.6111270E+01 -0.9146160E+01 -0.2310450E+00  0.1758654E+00 -0.1882395E+01  0.5391685E-01  0.1673965E+00
  0.6978330E+01 -0.8503110E+01 -0.2310450E+00  0.1582945E+00 -0.1907090E+01  0.5223567E-01  0.1494275E+00
  0.7778180E+01 -0.7778170E+01 -0.2310450E+00  0.1402153E+00 -0.1943691E+01  0.5108216E-01  0.1305793E+00
  0.8503120E+01 -0.6978320E+01 -0.2310450E+00  0.1220259E+00 -0.1997706E+01  0.5052600E-01  0.1110740E+00
  0.9146170E+01 -0.6111270E+01 -0.2310450E+00  0.1041549E+00 -0.2078478E+01  0.5063515E-01  0.9101824E-01
  0.9701130E+01 -0.5185360E+01 -0.2310450E+00  0.8743155E-01 -0.2198987E+01  0.5138194E-01  0.7074018E-01
  0.1016270E+02 -0.4209520E+01 -0.2310450E+00  0.7306426E-01 -0.2379113E+01  0.5283464E-01  0.5046670E-01
  0.1052630E+02 -0.3193130E+01 -0.2310450E+00  0.6279252E-01 -0.2636896E+01  0.5496363E-01  0.3036280E-01
  0.1078860E+02 -0.2145990E+01 -0.2310450E+00  0.5870251E-01 -0.2959641E+01  0.5773347E-01  0.1062219E-01
  0.1094700E+02 -0.1078180E+01 -0.2310450E+00  0.6162211E-01  0.3001438E+01  0.6101787E-01 -0.8608370E-02
  0.1100000E+02  0.0000000E+00 -0.4105000E+00  0.6981524E-01  0.2746753E+01  0.6444354E-01 -0.2685514E-01
  0.1094700E+02  0.1078190E+01 -0.4105000E+00  0.8152857E-01  0.2568911E+01  0.6852078E-01 -0.4417932E-01
  0.1078860E+02  0.2145990E+01 -0.4105000E+00  0.9458032E-01  0.2449564E+01  0.7282239E-01 -0.6035177E-01
  0.1052630E+02  0.3193130E+01 -0.4105000E+00  0.1078728E+00  0.2368358E+01  0.7719974E-01 -0.7534418E-01
  0.1016270E+02  0.4209520E+01 -0.4105000E+00  0.1205327E+00  0.2313380E+01  0.8150345E-01 -0.8879936E-01
  0.9701130E+01  0.5185360E+01 -0.4105000E+00  0.1322409E+00  0.2274926E+01  0.8560889E-01 -0.1007907E+00
  0.9146170E+01  0.6111270E+01 -0.4105000E+00  0.1425752E+00  0.2248296E+01  0.8937285E-01 -0.1110863E+00
  0.8503110E+01  0.6978330E+01 -0.4105000E+00  0.1514814E+00  0.2229246E+01  0.9269013E-01 -0.1198130E+00
  0.7778170E+01  0.7778170E+01 -0.4105000E+00  0.1585599E+00  0.2216503E+01  0.9541548E-01 -0.1266377E+00
  0.6978330E+01  0.8503110E+01 -0.4105000E+00  0.1638700E+00  0.2207919E+01  0.9748385E-01 -0.1317205E+00
  0.6111270E+01  0.9146170E+01 -0.4105000E+00  0.1671682E+00  0.2203158E+01  0.9880495E-01 -0.1348436E+00
  0.5185360E+01  0.9701130E+01 -0.4105000E+00  0.1686368E+00  0.2200987E+01  0.9937739E-01 -0.1362443E+00
  0.4209520E+01  0.1016270E+02 -0.4105000E+00  0.1680042E+00  0.2201945E+01  0.9913468E-01 -0.1356383E+00
  0.3193130E+01  0.1052630E+02 -0.4105000E+00  0.1654626E+00  0.2205527E+01  0.9811284E-01 -0.1332357E+00
  0.2145990E+01  0.1078860E+02 -0.4105000E+00  0.1608610E+00  0.2212742E+01  0.9631632E-01 -0.1288388E+00
  0.1078190E+01  0.1094700E+02 -0.4105000E+00  0.1545224E+00  0.2223531E+01  0.9385087E-01 -0.1227567E+00
 -0.4808250E-06  0.1100000E+02 -0.4105000E+00  0.1463377E+00  0.2239837E+01  0.9076358E-01 -0.1147898E+00
 -0.1078190E+01  0.1094700E+02 -0.4105000E+00  0.1365963E+00  0.2262932E+01  0.8717344E-01 -0.1051634E+00
 -0.2145990E+01  0.1078860E+02 -0.4105000E+00  0.1253265E+00  0.2296522E+01  0.8317651E-01 -0.9374654E-01
 -0.3193130E+01  0.1052630E+02 -0.4105000E+00  0.1130139E+00  0.2343972E+01  0.7893022E-01 -0.8088369E-01
 -0.4209520E+01  0.1016270E+02 -0.4105000E+00  0.9991790E-01  0.2413254E+01  0.7456685E-01 -0.6650843E-01
 -0.5185370E+01  0.9701130E+01 -0.4105000E+00  0.8670659E-01  0.2514895E+01  0.7022962E-01 -0.5085108E-01
 -0.6111270E+01  0.9146160E+01 -0.4105000E+00  0.7423552E-01  0.2667530E+01  0.6604891E-01 -0.3388885E-01
 -0.6978330E+01  0.8503120E+01 -0.4105000E+00  0.6417019E-01  0.2890008E+01  0.6215006E-01 -0.1597444E-01
 -0.7778170E+01  0.7778170E+01 -0.4105000E+00  0.5874147E-01 -0.3093964E+01  0.5867485E-01  0.2796710E-02