 VARIABLES="X" "Y" "Z" "abs(eta) (m)" "angle(phi) (rad)" "PRE1" "PRE2"
ZONE N=   3200 ,E =    3136 ,F=FEPOINT,ET=QUADRILATERAL
  0.1010000E+02  0.0000000E+00  0.0000000E+00  0.1231410E+00  0.2470366E+01  0.9642670E-01 -0.7658715E-01
  0.1005140E+02  0.9899730E+00  0.0000000E+00  0.1431363E+00  0.2388276E+01  0.1044070E+00 -0.9791411E-01
  0.9905930E+01  0.1970410E+01  0.0000000E+00  0.1628034E+00  0.2334232E+01  0.1125635E+00 -0.1176198E+00
  0.9665100E+01  0.2931880E+01  0.0000000E+00  0.1813587E+00  0.2297179E+01  0.1204529E+00 -0.1355805E+00
  0.9331180E+01  0.3865100E+01  0.0000000E+00  0.1976488E+00  0.2272464E+01  0.1275808E+00 -0.1509575E+00
  0.8907400E+01  0.4761110E+01  0.0000000E+00  0.2113681E+00  0.2256810E+01  0.1338928E+00 -0.1635518E+00
  0.8397840E+01  0.5611260E+01  0.0000000E+00  0.2228439E+00  0.2246549E+01  0.1393855E+00 -0.1738710E+00
  0.7807410E+01  0.6407370E+01  0.0000000E+00  0.2320852E+00  0.2238901E+01  0.1437767E+00 -0.1821862E+00
  0.7141780E+01  0.7141780E+01  0.0000000E+00  0.2383557E+00  0.2234103E+01  0.1467617E+00 -0.1878149E+00
  0.6407370E+01  0.7807410E+01  0.0000000E+00  0.2413197E+00  0.2232534E+01  0.1482883E+00 -0.1903833E+00
  0.5611260E+01  0.8397840E+01  0.0000000E+00  0.2413656E+00  0.2232919E+01  0.1483897E+00 -0.1903624E+00
  0.4761110E+01  0.8907410E+01  0.0000000E+00  0.2389466E+00  0.2234020E+01  0.1471100E+00 -0.1882927E+00
  0.3865100E+01  0.9331180E+01  0.0000000E+00  0.2336871E+00  0.2237303E+01  0.1444756E+00 -0.1836748E+00
  0.2931870E+01  0.9665100E+01  0.0000000E+00  0.2252003E+00  0.2244279E+01  0.1404602E+00 -0.1760288E+00
  0.1970410E+01  0.9905930E+01  0.0000000E+00  0.2137961E+00  0.2254907E+01  0.1351157E+00 -0.1656881E+00
  0.9899730E+00  0.1005140E+02  0.0000000E+00  0.2002846E+00  0.2269341E+01  0.1288038E+00 -0.1533738E+00
 -0.4414850E-06  0.1010000E+02  0.0000000E+00  0.1847656E+00  0.2290976E+01  0.1218565E+00 -0.1388860E+00
 -0.9899740E+00  0.1005140E+02  0.0000000E+00  0.1669568E+00  0.2324726E+01  0.1142834E+00 -0.1217123E+00
 -0.1970410E+01  0.9905930E+01  0.0000000E+00  0.1472268E+00  0.2375935E+01  0.1061397E+00 -0.1020299E+00
 -0.2931880E+01  0.9665100E+01  0.0000000E+00  0.1268849E+00  0.2452394E+01  0.9792423E-01 -0.8068847E-01
 -0.3865100E+01  0.9331180E+01  0.0000000E+00  0.1070915E+00  0.2570278E+01  0.9008441E-01 -0.5790846E-01
 -0.4761110E+01  0.8907400E+01  0.0000000E+00  0.8909707E-01  0.2759070E+01  0.8265768E-01 -0.3325652E-01
 -0.5611260E+01  0.8397840E+01  0.0000000E+00  0.7597633E-01  0.3052888E+01  0.7567761E-01 -0.6730646E-02
 -0.6407370E+01  0.7807410E+01  0.0000000E+00  0.7254665E-01 -0.2851944E+01  0.6952468E-01  0.2072043E-01
 -0.7141780E+01  0.7141780E+01  0.0000000E+00  0.8067725E-01 -0.2497036E+01  0.6449069E-01  0.4847442E-01
 -0.7807410E+01  0.6407370E+01  0.0000000E+00  0.9785226E-01 -0.2238818E+01  0.6061303E-01  0.7681878E-01
 -0.8397840E+01  0.5611260E+01  0.0000000E+00  0.1206978E+00 -0.2071001E+01  0.5788730E-01  0.1059104E+00
 -0.8907410E+01  0.4761110E+01  0.0000000E+00  0.1462032E+00 -0.1966604E+01  0.5636913E-01  0.1348996E+00
 -0.9331180E+01  0.3865100E+01  0.0000000E+00  0.1722531E+00 -0.1902069E+01  0.5602485E-01  0.1628875E+00
 -0.9665100E+01  0.2931880E+01  0.0000000E+00  0.1983337E+00 -0.1861594E+01  0.5686548E-01  0.1900068E+00
 -0.9905930E+01  0.1970410E+01  0.0000000E+00  0.2244341E+00 -0.1836124E+01  0.5885235E-01  0.2165804E+00
 -0.1005140E+02  0.9899730E+00  0.0000000E+00  0.2497843E+00 -0.1820431E+01  0.6170909E-01  0.2420417E+00
 -0.1010000E+02 -0.8829700E-06  0.0000000E+00  0.2733366E+00 -0.1811326E+01  0.6511348E-01  0.2654678E+00
 -0.1005140E+02 -0.9899740E+00  0.0000000E+00  0.2950121E+00 -0.1807055E+01  0.6905255E-01  0.2868168E+00
 -0.9905930E+01 -0.1970410E+01  0.0000000E+00  0.3152292E+00 -0.1806054E+01  0.7347783E-01  0.3065460E+00
 -0.9665100E+01 -0.2931880E+01  0.0000000E+00  0.3337659E+00 -0.1806612E+01  0.7797989E-01  0.3245286E+00
 -0.9331180E+01 -0.3865100E+01  0.0000000E+00  0.3497140E+00 -0.1807940E+01  0.8215723E-01  0.3399265E+00
 -0.8907400E+01 -0.4761110E+01  0.0000000E+00  0.3628751E+00 -0.1810039E+01  0.8598956E-01  0.3525396E+00
 -0.8397840E+01 -0.5611260E+01  0.0000000E+00  0.3737379E+00 -0.1812474E+01  0.8944737E-01  0.3628763E+00
 -0.7807400E+01 -0.6407370E+01  0.0000000E+00  0.3824939E+00 -0.1814362E+01  0.9224387E-01  0.3712043E+00
 -0.7141780E+01 -0.7141780E+01  0.0000000E+00  0.3884225E+00 -0.1815607E+01  0.9414288E-01  0.3768410E+00
 -0.6407370E+01 -0.7807410E+01  0.0000000E+00  0.3911588E+00 -0.1816459E+01  0.9512946E-01  0.3794149E+00
 -0.5611260E+01 -0.8397850E+01  0.0000000E+00  0.3911572E+00 -0.1816652E+01  0.9520224E-01  0.3793949E+00
 -0.4761110E+01 -0.8907410E+01  0.0000000E+00  0.3889409E+00 -0.1815858E+01  0.9436337E-01  0.3773203E+00
 -0.3865100E+01 -0.9331190E+01  0.0000000E+00  0.3840426E+00 -0.1814510E+01  0.9267280E-01  0.3726936E+00
 -0.2931870E+01 -0.9665100E+01  0.0000000E+00  0.3760003E+00 -0.1812886E+01  0.9013908E-01  0.3650359E+00
 -0.1970410E+01 -0.9905930E+01  0.0000000E+00  0.3651415E+00 -0.1810745E+01  0.8677705E-01  0.3546802E+00
 -0.9899710E+00 -0.1005140E+02  0.0000000E+00  0.3522342E+00 -0.1808303E+01  0.8287350E-01  0.3423462E+00
  0.1204410E-06 -0.1010000E+02  0.0000000E+00  0.3371651E+00 -0.1806560E+01  0.7875691E-01  0.3278379E+00
  0.9899760E+00 -0.1005140E+02  0.0000000E+00  0.3194420E+00 -0.1806059E+01  0.7446150E-01  0.3106423E+00
  0.1970410E+01 -0.9905930E+01  0.0000000E+00  0.2992427E+00 -0.1806939E+01  0.7000891E-01  0.2909380E+00
  0.2931880E+01 -0.9665100E+01  0.0000000E+00  0.2774883E+00 -0.1810215E+01  0.6580299E-01  0.2695732E+00
  0.3865100E+01 -0.9331180E+01  0.0000000E+00  0.2545021E+00 -0.1817896E+01  0.6224932E-01  0.2467718E+00
  0.4761110E+01 -0.8907410E+01  0.0000000E+00  0.2299064E+00 -0.1832114E+01  0.5939706E-01  0.2221012E+00
  0.5611260E+01 -0.8397840E+01  0.0000000E+00  0.2037691E+00 -0.1855611E+01  0.5725487E-01  0.1955600E+00
  0.6407370E+01 -0.7807410E+01  0.0000000E+00  0.1772097E+00 -0.1892924E+01  0.5610194E-01  0.1680947E+00
  0.7141780E+01 -0.7141780E+01  0.0000000E+00  0.1511506E+00 -0.1951452E+01  0.5615683E-01  0.1403314E+00
  0.7807410E+01 -0.6407370E+01  0.0000000E+00  0.1258616E+00 -0.2044843E+01  0.5745458E-01  0.1119826E+00
  0.8397840E+01 -0.5611260E+01  0.0000000E+00  0.1023146E+00 -0.2197157E+01  0.5997689E-01  0.8289184E-01
  0.8907410E+01 -0.4761110E+01  0.0000000E+00  0.8343873E-01 -0.2439196E+01  0.6368847E-01  0.5390548E-01
  0.9331180E+01 -0.3865100E+01  0.0000000E+00  0.7320552E-01 -0.2779594E+01  0.6846113E-01  0.2592532E-01
  0.9665100E+01 -0.2931870E+01  0.0000000E+00  0.7429907E-01  0.3125691E+01  0.7428968E-01 -0.1181459E-02
  0.9905930E+01 -0.1970410E+01  0.0000000E+00  0.8574679E-01  0.2812180E+01  0.8113641E-01 -0.2773798E-01
  0.1005140E+02 -0.9899690E+00  0.0000000E+00  0.1033836E+00  0.2601274E+01  0.8865610E-01 -0.5318152E-01
  0.1010000E+02  0.0000000E+00 -0.2568960E-01  0.1230370E+00  0.2470285E+01  0.9633908E-01 -0.7653029E-01
  0.1005140E+02  0.9899730E+00 -0.2568960E-01  0.1430401E+00  0.2388056E+01  0.1043154E+00 -0.9787119E-01
  0.9905930E+01  0.1970410E+01 -0.2568960E-01  0.1626630E+00  0.2334198E+01  0.1124625E+00 -0.1175221E+00
  0.9665100E+01  0.2931880E+01 -0.2568960E-01  0.1812350E+00  0.2297021E+01  0.1203494E+00 -0.1355071E+00
  0.9331180E+01  0.3865100E+01 -0.2568960E-01  0.1974842E+00  0.2272421E+01  0.1274681E+00 -0.1508374E+00
  0.8907400E+01  0.4761110E+01 -0.2568960E-01  0.2112290E+00  0.2256682E+01  0.1337837E+00 -0.1634613E+00
  0.8397840E+01  0.5611260E+01 -0.2568960E-01  0.2226518E+00  0.2246526E+01  0.1392613E+00 -0.1737242E+00
  0.7807410E+01  0.6407370E+01 -0.2568960E-01  0.2319305E+00  0.2238789E+01  0.1436604E+00 -0.1820809E+00
  0.7141780E+01  0.7141780E+01 -0.2568960E-01  0.2381567E+00  0.2234072E+01  0.1466334E+00 -0.1876626E+00
  0.6407370E+01  0.7807410E+01 -0.2568960E-01  0.2411600E+00  0.2232429E+01  0.1481702E+00 -0.1902728E+00
  0.5611260E+01  0.8397840E+01 -0.2568960E-01  0.2411579E+00  0.2232900E+01  0.1482585E+00 -0.1902013E+00
  0.4761110E+01  0.8907410E+01 -0.2568960E-01  0.2387890E+00  0.2233917E+01  0.1469934E+00 -0.1881837E+00
  0.3865100E+01  0.9331180E+01 -0.2568960E-01  0.2334928E+00  0.2237270E+01  0.1443495E+00 -0.1835268E+00
  0.2931870E+01  0.9665100E+01 -0.2568960E-01  0.2250496E+00  0.2244160E+01  0.1403452E+00 -0.1759277E+00
  0.1970410E+01  0.9905930E+01 -0.2568960E-01  0.2136119E+00  0.2254881E+01  0.1349951E+00 -0.1655487E+00
  0.9899730E+00  0.1005140E+02 -0.2568960E-01  0.2001528E+00  0.2269200E+01  0.1286974E+00 -0.1532909E+00
 -0.4414850E-06  0.1010000E+02 -0.2568960E-01  0.1846120E+00  0.2290928E+01  0.1217486E+00 -0.1387763E+00
 -0.9899740E+00  0.1005140E+02 -0.2568960E-01  0.1668419E+00  0.2324549E+01  0.1141832E+00 -0.1216487E+00
 -0.1970410E+01  0.9905930E+01 -0.2568960E-01  0.1470997E+00  0.2375893E+01  0.1060438E+00 -0.1019462E+00
 -0.2931880E+01  0.9665100E+01 -0.2568960E-01  0.1267973E+00  0.2452137E+01  0.9783585E-01 -0.8065797E-01
 -0.3865100E+01  0.9331180E+01 -0.2568960E-01  0.1070000E+00  0.2570183E+01  0.9000196E-01 -0.5786755E-01
 -0.4761110E+01  0.8907400E+01 -0.2568960E-01  0.8902057E-01  0.2758754E+01  0.8257619E-01 -0.3325411E-01
 -0.5611260E+01  0.8397840E+01 -0.2568960E-01  0.7590661E-01  0.3052809E+01  0.7560764E-01 -0.6730376E-02
 -0.6407370E+01  0.7807410E+01 -0.2568960E-01  0.7246645E-01 -0.2852197E+01  0.6945304E-01  0.2067998E-01
 -0.7141780E+01  0.7141780E+01 -0.2568960E-01  0.8059834E-01 -0.2497066E+01  0.6442907E-01  0.4842507E-01
 -0.7807410E+01  0.6407370E+01 -0.2568960E-01  0.9775349E-01 -0.2238746E+01  0.6054634E-01  0.7674558E-01
 -0.8397840E+01  0.5611260E+01 -0.2568960E-01  0.1205856E+00 -0.2070994E+01  0.5783269E-01  0.1058124E+00
 -0.8907410E+01  0.4761110E+01 -0.2568960E-01  0.1460692E+00 -0.1966523E+01  0.5630653E-01  0.1347805E+00
 -0.9331180E+01  0.3865100E+01 -0.2568960E-01  0.1720973E+00 -0.1902048E+01  0.5597070E-01  0.1627414E+00
 -0.9665100E+01  0.2931880E+01 -0.2568960E-01  0.1981712E+00 -0.1861520E+01  0.5680493E-01  0.1898552E+00
 -0.9905930E+01  0.1970410E+01 -0.2568960E-01  0.2242320E+00 -0.1836117E+01  0.5879774E-01  0.2163858E+00
 -0.1005140E+02  0.9899730E+00 -0.2568960E-01  0.2495820E+00 -0.1820378E+01  0.6164638E-01  0.2418489E+00
 -0.1010000E+02 -0.8829700E-06 -0.2568960E-01  0.2730958E+00 -0.1811317E+01  0.6505366E-01  0.2652345E+00
 -0.1005140E+02 -0.9899740E+00 -0.2568960E-01  0.2947839E+00 -0.1807021E+01  0.6898937E-01  0.2865973E+00
 -0.9905930E+01 -0.1970410E+01 -0.2568960E-01  0.3149480E+00 -0.1806052E+01  0.7341181E-01  0.3062727E+00
 -0.9665100E+01 -0.2931880E+01 -0.2568960E-01  0.3335070E+00 -0.1806587E+01  0.7791129E-01  0.3242788E+00
 -0.9331180E+01 -0.3865100E+01 -0.2568960E-01  0.3494085E+00 -0.1807938E+01  0.8208486E-01  0.3396298E+00
 -0.8907400E+01 -0.4761110E+01 -0.2568960E-01  0.3625992E+00 -0.1810026E+01  0.8591958E-01  0.3522726E+00
 -0.8397840E+01 -0.5611260E+01 -0.2568960E-01  0.3734054E+00 -0.1812475E+01  0.8936825E-01  0.3625533E+00
 -0.7807400E+01 -0.6407370E+01 -0.2568960E-01  0.3822019E+00 -0.1814353E+01  0.9217026E-01  0.3709218E+00
 -0.7141780E+01 -0.7141780E+01 -0.2568960E-01  0.3880841E+00 -0.1815609E+01  0.9406160E-01  0.3765125E+00
 -0.6407370E+01 -0.7807410E+01 -0.2568960E-01  0.3908619E+00 -0.1816454E+01  0.9505525E-01  0.3791273E+00
 -0.5611260E+01 -0.8397850E+01 -0.2568960E-01  0.3908089E+00 -0.1816656E+01  0.9511891E-01  0.3790567E+00
 -0.4761110E+01 -0.8907410E+01 -0.2568960E-01  0.3886457E+00 -0.1815852E+01  0.9428951E-01  0.3770345E+00
 -0.3865100E+01 -0.9331190E+01 -0.2568960E-01  0.3837081E+00 -0.1814513E+01  0.9259295E-01  0.3723688E+00
 -0.2931870E+01 -0.9665100E+01 -0.2568960E-01  0.3757133E+00 -0.1812874E+01  0.9006598E-01  0.3647583E+00
 -0.1970410E+01 -0.9905930E+01 -0.2568960E-01  0.3648165E+00 -0.1810747E+01  0.8670027E-01  0.3543644E+00
 -0.9899710E+00 -0.1005140E+02 -0.2568960E-01  0.3519656E+00 -0.1808286E+01  0.8280481E-01  0.3420864E+00
  0.1204410E-06 -0.1010000E+02 -0.2568960E-01  0.3368703E+00 -0.1806558E+01  0.7868736E-01  0.3275514E+00
  0.9899760E+00 -0.1005140E+02 -0.2568960E-01  0.3191926E+00 -0.1806030E+01  0.7439443E-01  0.3104020E+00
  0.1970410E+01 -0.9905930E+01 -0.2568960E-01  0.2989752E+00 -0.1806936E+01  0.6994570E-01  0.2906781E+00
  0.2931880E+01 -0.9665100E+01 -0.2568960E-01  0.2772723E+00 -0.1810174E+01  0.6574068E-01  0.2693661E+00
  0.3865100E+01 -0.9331180E+01 -0.2568960E-01  0.2542771E+00 -0.1817885E+01  0.6219152E-01  0.2465543E+00
  0.4761110E+01 -0.8907410E+01 -0.2568960E-01  0.2297173E+00 -0.1832054E+01  0.5933501E-01  0.2219220E+00
  0.5611260E+01 -0.8397840E+01 -0.2568960E-01  0.2035846E+00 -0.1855603E+01  0.5720156E-01  0.1953834E+00
  0.6407370E+01 -0.7807410E+01 -0.2568960E-01  0.1770613E+00 -0.1892842E+01  0.5604128E-01  0.1679585E+00
  0.7141780E+01 -0.7141780E+01 -0.2568960E-01  0.1510124E+00 -0.1951431E+01  0.5610261E-01  0.1402043E+00
  0.7807410E+01 -0.6407370E+01 -0.2568960E-01  0.1257405E+00 -0.2044766E+01  0.5739075E-01  0.1118792E+00
  0.8397840E+01 -0.5611260E+01 -0.2568960E-01  0.1022182E+00 -0.2197159E+01  0.5992049E-01  0.8281366E-01
  0.8907410E+01 -0.4761110E+01 -0.2568960E-01  0.8334903E-01 -0.2439188E+01  0.6361954E-01  0.5384807E-01
  0.9331180E+01 -0.3865100E+01 -0.2568960E-01  0.7313386E-01 -0.2779666E+01  0.6839599E-01  0.2589500E-01
  0.9665100E+01 -0.2931870E+01 -0.2568960E-01  0.7422485E-01  0.3125333E+01  0.7421504E-01 -0.1206809E-02
  0.9905930E+01 -0.1970410E+01 -0.2568960E-01  0.8566998E-01  0.2812103E+01  0.8106159E-01 -0.2771936E-01
  0.1005140E+02 -0.9899690E+00 -0.2568960E-01  0.1033026E+00  0.2600982E+01  0.8857109E-01 -0.5316563E-01
  0.1010000E+02  0.0000000E+00 -0.1027320E+00  0.1227104E+00  0.2470171E+01  0.9607467E-01 -0.7633808E-01
  0.1005140E+02  0.9899730E+00 -0.1027320E+00  0.1426888E+00  0.2387828E+01  0.1040370E+00 -0.9765457E-01
  0.9905930E+01  0.1970410E+01 -0.1027320E+00  0.1622250E+00  0.2334191E+01  0.1121587E+00 -0.1172065E+00
  0.9665100E+01  0.2931880E+01 -0.1027320E+00  0.1807775E+00  0.2296893E+01  0.1200283E+00 -0.1351804E+00
  0.9331180E+01  0.3865100E+01 -0.1027320E+00  0.1969672E+00  0.2272399E+01  0.1271311E+00 -0.1504452E+00
  0.8907400E+01  0.4761110E+01 -0.1027320E+00  0.2107109E+00  0.2256593E+01  0.1334411E+00 -0.1630723E+00
  0.8397840E+01  0.5611260E+01 -0.1027320E+00  0.2220537E+00  0.2246557E+01  0.1388927E+00 -0.1732532E+00
  0.7807410E+01  0.6407370E+01 -0.1027320E+00  0.2313537E+00  0.2238727E+01  0.1432918E+00 -0.1816370E+00
  0.7141780E+01  0.7141780E+01 -0.1027320E+00  0.2375345E+00  0.2234083E+01  0.1462524E+00 -0.1871707E+00
  0.6407370E+01  0.7807410E+01 -0.1027320E+00  0.2405648E+00  0.2232377E+01  0.1477944E+00 -0.1898110E+00
  0.5611260E+01  0.8397840E+01 -0.1027320E+00  0.2405098E+00  0.2232939E+01  0.1478673E+00 -0.1896846E+00
  0.4761110E+01  0.8907410E+01 -0.1027320E+00  0.2382003E+00  0.2233860E+01  0.1466204E+00 -0.1877281E+00
  0.3865100E+01  0.9331180E+01 -0.1027320E+00  0.2328824E+00  0.2237278E+01  0.1439735E+00 -0.1830460E+00
  0.2931870E+01  0.9665100E+01 -0.1027320E+00  0.2244890E+00  0.2244089E+01  0.1399831E+00 -0.1754994E+00
  0.1970410E+01  0.9905930E+01 -0.1027320E+00  0.2130375E+00  0.2254908E+01  0.1346365E+00 -0.1651000E+00
  0.9899730E+00  0.1005140E+02 -0.1027320E+00  0.1996629E+00  0.2269097E+01  0.1283667E+00 -0.1529289E+00
 -0.4414850E-06  0.1010000E+02 -0.1027320E+00  0.1841279E+00  0.2290896E+01  0.1214248E+00 -0.1384163E+00
 -0.9899740E+00  0.1005140E+02 -0.1027320E+00  0.1664181E+00  0.2324399E+01  0.1138749E+00 -0.1213569E+00
 -0.1970410E+01  0.9905930E+01 -0.1027320E+00  0.1467029E+00  0.2375879E+01  0.1057563E+00 -0.1016728E+00
 -0.2931880E+01  0.9665100E+01 -0.1027320E+00  0.1264841E+00  0.2451859E+01  0.9757179E-01 -0.8048581E-01
 -0.3865100E+01  0.9331180E+01 -0.1027320E+00  0.1067133E+00  0.2570041E+01  0.8975252E-01 -0.5772525E-01
 -0.4761110E+01  0.8907400E+01 -0.1027320E+00  0.8877360E-01  0.2758474E+01  0.8233782E-01 -0.3318487E-01
 -0.5611260E+01  0.8397840E+01 -0.1027320E+00  0.7569372E-01  0.3052721E+01  0.7539500E-01 -0.6718194E-02
 -0.6407370E+01  0.7807410E+01 -0.1027320E+00  0.7224668E-01 -0.2852565E+01  0.6924999E-01  0.2059177E-01
 -0.7141780E+01  0.7141780E+01 -0.1027320E+00  0.8036327E-01 -0.2497071E+01  0.6424138E-01  0.4828353E-01
 -0.7807410E+01  0.6407370E+01 -0.1027320E+00  0.9747541E-01 -0.2238578E+01  0.6036124E-01  0.7653742E-01
 -0.8397840E+01  0.5611260E+01 -0.1027320E+00  0.1202468E+00 -0.2070958E+01  0.5766644E-01  0.1055171E+00
 -0.8907410E+01  0.4761110E+01 -0.1027320E+00  0.1456541E+00 -0.1966426E+01  0.5613357E-01  0.1344029E+00
 -0.9331180E+01  0.3865100E+01 -0.1027320E+00  0.1716223E+00 -0.1901992E+01  0.5580715E-01  0.1622954E+00
 -0.9665100E+01  0.2931880E+01 -0.1027320E+00  0.1976484E+00 -0.1861426E+01  0.5663722E-01  0.1893597E+00
 -0.9905930E+01  0.1970410E+01 -0.1027320E+00  0.2236123E+00 -0.1836106E+01  0.5863294E-01  0.2157884E+00
 -0.1005140E+02  0.9899730E+00 -0.1027320E+00  0.2489105E+00 -0.1820321E+01  0.6146679E-01  0.2412017E+00
 -0.1010000E+02 -0.8829700E-06 -0.1027320E+00  0.2723534E+00 -0.1811308E+01  0.6487457E-01  0.2645140E+00
 -0.1005140E+02 -0.9899740E+00 -0.1027320E+00  0.2940167E+00 -0.1807003E+01  0.6880473E-01  0.2858526E+00
 -0.9905930E+01 -0.1970410E+01 -0.1027320E+00  0.3140812E+00 -0.1806071E+01  0.7321538E-01  0.3054284E+00
 -0.9665100E+01 -0.2931880E+01 -0.1027320E+00  0.3326272E+00 -0.1806581E+01  0.7770387E-01  0.3234238E+00
 -0.9331180E+01 -0.3865100E+01 -0.1027320E+00  0.3484639E+00 -0.1807963E+01  0.8187141E-01  0.3387096E+00
 -0.8907400E+01 -0.4761110E+01 -0.1027320E+00  0.3616576E+00 -0.1810049E+01  0.8570445E-01  0.3513559E+00
 -0.8397840E+01 -0.5611260E+01 -0.1027320E+00  0.3723799E+00 -0.1812513E+01  0.8913650E-01  0.3615542E+00
 -0.7807400E+01 -0.6407370E+01 -0.1027320E+00  0.3812031E+00 -0.1814378E+01  0.9193876E-01  0.3699501E+00
 -0.7141780E+01 -0.7141780E+01 -0.1027320E+00  0.3870366E+00 -0.1815650E+01  0.9382328E-01  0.3754923E+00
 -0.6407370E+01 -0.7807410E+01 -0.1027320E+00  0.3898445E+00 -0.1816488E+01  0.9482078E-01  0.3781373E+00
 -0.5611260E+01 -0.8397850E+01 -0.1027320E+00  0.3897364E+00 -0.1816698E+01  0.9487394E-01  0.3780124E+00
 -0.4761110E+01 -0.8907410E+01 -0.1027320E+00  0.3876344E+00 -0.1815886E+01  0.9405699E-01  0.3760502E+00
 -0.3865100E+01 -0.9331190E+01 -0.1027320E+00  0.3826724E+00 -0.1814552E+01  0.9235764E-01  0.3713599E+00
 -0.2931870E+01 -0.9665100E+01 -0.1027320E+00  0.3747296E+00 -0.1812895E+01  0.8983788E-01  0.3638014E+00
 -0.1970410E+01 -0.9905930E+01 -0.1027320E+00  0.3638146E+00 -0.1810781E+01  0.8647433E-01  0.3533882E+00
 -0.9899710E+00 -0.1005140E+02 -0.1027320E+00  0.3510513E+00 -0.1808304E+01  0.8259570E-01  0.3411964E+00
  0.1204410E-06 -0.1010000E+02 -0.1027320E+00  0.3359591E+00 -0.1806577E+01  0.7848091E-01  0.3266639E+00
  0.9899760E+00 -0.1005140E+02 -0.1027320E+00  0.3183481E+00 -0.1806015E+01  0.7419286E-01  0.3095818E+00
  0.1970410E+01 -0.9905930E+01 -0.1027320E+00  0.2981520E+00 -0.1806950E+01  0.6975706E-01  0.2898768E+00
  0.2931880E+01 -0.9665100E+01 -0.1027320E+00  0.2765500E+00 -0.1810144E+01  0.6556135E-01  0.2686664E+00
  0.3865100E+01 -0.9331180E+01 -0.1027320E+00  0.2535849E+00 -0.1817867E+01  0.6201798E-01  0.2458843E+00
  0.4761110E+01 -0.8907410E+01 -0.1027320E+00  0.2290952E+00 -0.1831985E+01  0.5915914E-01  0.2213251E+00
  0.5611260E+01 -0.8397840E+01 -0.1027320E+00  0.2030214E+00 -0.1855585E+01  0.5703983E-01  0.1948439E+00
  0.6407370E+01 -0.7807410E+01 -0.1027320E+00  0.1765912E+00 -0.1892725E+01  0.5587285E-01  0.1675191E+00
  0.7141780E+01 -0.7141780E+01 -0.1027320E+00  0.1505927E+00 -0.1951366E+01  0.5593755E-01  0.1398183E+00
  0.7807410E+01 -0.6407370E+01 -0.1027320E+00  0.1253759E+00 -0.2044683E+01  0.5721501E-01  0.1115596E+00
  0.8397840E+01 -0.5611260E+01 -0.1027320E+00  0.1019291E+00 -0.2197126E+01  0.5974833E-01  0.8258135E-01
  0.8907410E+01 -0.4761110E+01 -0.1027320E+00  0.8310439E-01 -0.2439066E+01  0.6342627E-01  0.5369774E-01
  0.9331180E+01 -0.3865100E+01 -0.1027320E+00  0.7292024E-01 -0.2779752E+01  0.6819841E-01  0.2581353E-01
  0.9665100E+01 -0.2931870E+01 -0.1027320E+00  0.7401225E-01  0.3124851E+01  0.7400188E-01 -0.1239048E-02
  0.9905930E+01 -0.1970410E+01 -0.1027320E+00  0.8543376E-01  0.2812020E+01  0.8083579E-01 -0.2764964E-01
  0.1005140E+02 -0.9899690E+00 -0.1027320E+00  0.1030250E+00  0.2600718E+01  0.8831912E-01 -0.5304612E-01
  0.1010000E+02  0.0000000E+00 -0.2310450E+00  0.1221908E+00  0.2469824E+01  0.9564145E-01 -0.7604799E-01
  0.1005140E+02  0.9899730E+00 -0.2310450E+00  0.1421067E+00  0.2387470E+01  0.1035777E+00 -0.9729324E-01
  0.9905930E+01  0.1970410E+01 -0.2310450E+00  0.1615885E+00  0.2333704E+01  0.1116618E+00 -0.1168010E+00
  0.9665100E+01  0.2931880E+01 -0.2310450E+00  0.1800098E+00  0.2296651E+01  0.1194861E+00 -0.1346351E+00
  0.9331180E+01  0.3865100E+01 -0.2310450E+00  0.1961393E+00  0.2272193E+01  0.1265658E+00 -0.1498389E+00
  0.8907400E+01  0.4761110E+01 -0.2310450E+00  0.2098415E+00  0.2256382E+01  0.1328562E+00 -0.1624274E+00
  0.8397840E+01  0.5611260E+01 -0.2310450E+00  0.2211873E+00  0.2246220E+01  0.1382925E+00 -0.1726239E+00
  0.7807410E+01  0.6407370E+01 -0.2310450E+00  0.2303829E+00  0.2238536E+01  0.1426560E+00 -0.1809020E+00
  0.7141780E+01  0.7141780E+01 -0.2310450E+00  0.2365353E+00  0.2233914E+01  0.1456056E+00 -0.1864081E+00
  0.6407370E+01  0.7807410E+01 -0.2310450E+00  0.2395616E+00  0.2232198E+01  0.1471444E+00 -0.1890458E+00
  0.5611260E+01  0.8397840E+01 -0.2310450E+00  0.2395714E+00  0.2232635E+01  0.1472330E+00 -0.1889892E+00
  0.4761110E+01  0.8907410E+01 -0.2310450E+00  0.2372086E+00  0.2233679E+01  0.1459762E+00 -0.1869729E+00
  0.3865100E+01  0.9331180E+01 -0.2310450E+00  0.2319026E+00  0.2237108E+01  0.1433367E+00 -0.1823003E+00
  0.2931870E+01  0.9665100E+01 -0.2310450E+00  0.2235450E+00  0.2243894E+01  0.1393604E+00 -0.1747886E+00
  0.1970410E+01  0.9905930E+01 -0.2310450E+00  0.2122063E+00  0.2254555E+01  0.1340532E+00 -0.1645031E+00
  0.9899730E+00  0.1005140E+02 -0.2310450E+00  0.1988411E+00  0.2268872E+01  0.1278040E+00 -0.1523283E+00
 -0.4414850E-06  0.1010000E+02 -0.2310450E+00  0.1833540E+00  0.2290674E+01  0.1208839E+00 -0.1378614E+00
 -0.9899740E+00  0.1005140E+02 -0.2310450E+00  0.1657091E+00  0.2324141E+01  0.1133586E+00 -0.1208691E+00
 -0.1970410E+01  0.9905930E+01 -0.2310450E+00  0.1461246E+00  0.2375330E+01  0.1052839E+00 -0.1013297E+00
 -0.2931880E+01  0.9665100E+01 -0.2310450E+00  0.1259679E+00  0.2451434E+01  0.9713951E-01 -0.8019868E-01
 -0.3865100E+01  0.9331180E+01 -0.2310450E+00  0.1062574E+00  0.2569640E+01  0.8934610E-01 -0.5751448E-01
 -0.4761110E+01  0.8907400E+01 -0.2310450E+00  0.8837421E-01  0.2758116E+01  0.8195554E-01 -0.3306493E-01
 -0.5611260E+01  0.8397840E+01 -0.2310450E+00  0.7534465E-01  0.3051831E+01  0.7504132E-01 -0.6753962E-02
 -0.6407370E+01  0.7807410E+01 -0.2310450E+00  0.7190269E-01 -0.2853252E+01  0.6893434E-01  0.2044635E-01
 -0.7141780E+01  0.7141780E+01 -0.2310450E+00  0.7998044E-01 -0.2497257E+01  0.6394431E-01  0.4804161E-01
 -0.7807410E+01  0.6407370E+01 -0.2310450E+00  0.9703101E-01 -0.2238472E+01  0.6007794E-01  0.7619487E-01
 -0.8397840E+01  0.5611260E+01 -0.2310450E+00  0.1196877E+00 -0.2070830E+01  0.5738482E-01  0.1050339E+00
 -0.8907410E+01  0.4761110E+01 -0.2310450E+00  0.1449722E+00 -0.1966418E+01  0.5586971E-01  0.1337742E+00
 -0.9331180E+01  0.3865100E+01 -0.2310450E+00  0.1708488E+00 -0.1901944E+01  0.5554788E-01  0.1615666E+00
 -0.9665100E+01  0.2931880E+01 -0.2310450E+00  0.1967862E+00 -0.1861361E+01  0.5637792E-01  0.1885374E+00
 -0.9905930E+01  0.1970410E+01 -0.2310450E+00  0.2226485E+00 -0.1835982E+01  0.5835364E-01  0.2148655E+00
 -0.1005140E+02  0.9899730E+00 -0.2310450E+00  0.2477947E+00 -0.1820270E+01  0.6117904E-01  0.2401236E+00
 -0.1010000E+02 -0.8829700E-06 -0.2310450E+00  0.2711518E+00 -0.1811275E+01  0.6457958E-01  0.2633491E+00
 -0.1005140E+02 -0.9899740E+00 -0.2310450E+00  0.2927440E+00 -0.1806981E+01  0.6850052E-01  0.2846169E+00
 -0.9905930E+01 -0.1970410E+01 -0.2310450E+00  0.3127597E+00 -0.1806003E+01  0.7288672E-01  0.3041483E+00
 -0.9665100E+01 -0.2931880E+01 -0.2310450E+00  0.3311629E+00 -0.1806546E+01  0.7735027E-01  0.3220028E+00
 -0.9331180E+01 -0.3865100E+01 -0.2310450E+00  0.3469384E+00 -0.1807946E+01  0.8150721E-01  0.3372281E+00
 -0.8907400E+01 -0.4761110E+01 -0.2310450E+00  0.3600916E+00 -0.1810041E+01  0.8533049E-01  0.3498352E+00
 -0.8397840E+01 -0.5611260E+01 -0.2310450E+00  0.3708261E+00 -0.1812477E+01  0.8875152E-01  0.3600488E+00
 -0.7807400E+01 -0.6407370E+01 -0.2310450E+00  0.3795409E+00 -0.1814360E+01  0.9153096E-01  0.3683387E+00
 -0.7141780E+01 -0.7141780E+01 -0.2310450E+00  0.3853469E+00 -0.1815640E+01  0.9341005E-01  0.3738540E+00
 -0.6407370E+01 -0.7807410E+01 -0.2310450E+00  0.3881518E+00 -0.1816478E+01  0.9440523E-01  0.3764963E+00
 -0.5611260E+01 -0.8397850E+01 -0.2310450E+00  0.3881135E+00 -0.1816671E+01  0.9446855E-01  0.3764410E+00
 -0.4761110E+01 -0.8907410E+01 -0.2310450E+00  0.3859529E+00 -0.1815877E+01  0.9364568E-01  0.3744198E+00
 -0.3865100E+01 -0.9331190E+01 -0.2310450E+00  0.3810011E+00 -0.1814541E+01  0.9195030E-01  0.3697390E+00
 -0.2931870E+01 -0.9665100E+01 -0.2310450E+00  0.3730938E+00 -0.1812873E+01  0.8943790E-01  0.3622152E+00
 -0.1970410E+01 -0.9905930E+01 -0.2310450E+00  0.3622949E+00 -0.1810741E+01  0.8609889E-01  0.3519156E+00
 -0.9899710E+00 -0.1005140E+02 -0.2310450E+00  0.3495321E+00 -0.1808294E+01  0.8223480E-01  0.3397206E+00
  0.1204410E-06 -0.1010000E+02 -0.2310450E+00  0.3344863E+00 -0.1806558E+01  0.7813042E-01  0.3252333E+00
  0.9899760E+00 -0.1005140E+02 -0.2310450E+00  0.3169432E+00 -0.1805975E+01  0.7385319E-01  0.3082186E+00
  0.1970410E+01 -0.9905930E+01 -0.2310450E+00  0.2968931E+00 -0.1806873E+01  0.6944028E-01  0.2886582E+00
  0.2931880E+01 -0.9665100E+01 -0.2310450E+00  0.2753513E+00 -0.1810116E+01  0.6526973E-01  0.2675036E+00
  0.3865100E+01 -0.9331180E+01 -0.2310450E+00  0.2524632E+00 -0.1817831E+01  0.6173465E-01  0.2447989E+00
  0.4761110E+01 -0.8907410E+01 -0.2310450E+00  0.2280623E+00 -0.1831935E+01  0.5888137E-01  0.2203302E+00
  0.5611260E+01 -0.8397840E+01 -0.2310450E+00  0.2021384E+00 -0.1855449E+01  0.5676531E-01  0.1940043E+00
  0.6407370E+01 -0.7807410E+01 -0.2310450E+00  0.1758178E+00 -0.1892648E+01  0.5561529E-01  0.1667898E+00
  0.7141780E+01 -0.7141780E+01 -0.2310450E+00  0.1499085E+00 -0.1951322E+01  0.5567726E-01  0.1391855E+00
  0.7807410E+01 -0.6407370E+01 -0.2310450E+00  0.1247804E+00 -0.2044719E+01  0.5694734E-01  0.1110277E+00
  0.8397840E+01 -0.5611260E+01 -0.2310450E+00  0.1014413E+00 -0.2197068E+01  0.5945762E-01  0.8218957E-01
  0.8907410E+01 -0.4761110E+01 -0.2310450E+00  0.8271831E-01 -0.2439010E+01  0.6312861E-01  0.5345182E-01
  0.9331180E+01 -0.3865100E+01 -0.2310450E+00  0.7257468E-01 -0.2780099E+01  0.6788415E-01  0.2566758E-01
  0.9665100E+01 -0.2931870E+01 -0.2310450E+00  0.7367845E-01  0.3124065E+01  0.7366713E-01 -0.1291343E-02
  0.9905930E+01 -0.1970410E+01 -0.2310450E+00  0.8506338E-01  0.2811123E+01  0.8046062E-01 -0.2760195E-01
  0.1005140E+02 -0.9899690E+00 -0.2310450E+00  0.1025706E+00  0.2600368E+01  0.8791109E-01 -0.5284292E-01
  0.1010000E+02  0.0000000E+00 -0.4105000E+00  0.1214813E+00  0.2469278E+01  0.9504481E-01 -0.7565845E-01
  0.1005140E+02  0.9899730E+00 -0.4105000E+00  0.1412906E+00  0.2387065E+01  0.1029437E+00 -0.9677618E-01
  0.9905930E+01  0.1970410E+01 -0.4105000E+00  0.1606836E+00  0.2333156E+01  0.1109729E+00 -0.1162077E+00
  0.9665100E+01  0.2931880E+01 -0.4105000E+00  0.1789338E+00  0.2296379E+01  0.1187354E+00 -0.1338626E+00
  0.9331180E+01  0.3865100E+01 -0.4105000E+00  0.1950072E+00  0.2271862E+01  0.1257859E+00 -0.1490158E+00
  0.8907400E+01  0.4761110E+01 -0.4105000E+00  0.2086176E+00  0.2256136E+01  0.1320416E+00 -0.1615126E+00
  0.8397840E+01  0.5611260E+01 -0.4105000E+00  0.2199494E+00  0.2245828E+01  0.1374513E+00 -0.1717116E+00
  0.7807410E+01  0.6407370E+01 -0.4105000E+00  0.2290164E+00  0.2238307E+01  0.1417686E+00 -0.1798615E+00
  0.7141780E+01  0.7141780E+01 -0.4105000E+00  0.2351678E+00  0.2233638E+01  0.1447128E+00 -0.1853702E+00
  0.6407370E+01  0.7807410E+01 -0.4105000E+00  0.2381495E+00  0.2231979E+01  0.1462359E+00 -0.1879635E+00
  0.5611260E+01  0.8397840E+01 -0.4105000E+00  0.2382294E+00  0.2232274E+01  0.1463405E+00 -0.1879833E+00
  0.4761110E+01  0.8907410E+01 -0.4105000E+00  0.2358131E+00  0.2233459E+01  0.1450764E+00 -0.1859049E+00
  0.3865100E+01  0.9331180E+01 -0.4105000E+00  0.2305620E+00  0.2236826E+01  0.1424571E+00 -0.1812865E+00
  0.2931870E+01  0.9665100E+01 -0.4105000E+00  0.2222169E+00  0.2243658E+01  0.1384914E+00 -0.1737829E+00
  0.1970410E+01  0.9905930E+01 -0.4105000E+00  0.2110191E+00  0.2254145E+01  0.1332361E+00 -0.1636374E+00
  0.9899730E+00  0.1005140E+02 -0.4105000E+00  0.1976845E+00  0.2268608E+01  0.1270206E+00 -0.1514758E+00
 -0.4414850E-06  0.1010000E+02 -0.4105000E+00  0.1822956E+00  0.2290317E+01  0.1201372E+00 -0.1371085E+00
 -0.9899740E+00  0.1005140E+02 -0.4105000E+00  0.1647158E+00  0.2323856E+01  0.1126449E+00 -0.1201767E+00
 -0.1970410E+01  0.9905930E+01 -0.4105000E+00  0.1453045E+00  0.2374722E+01  0.1046316E+00 -0.1008247E+00
 -0.2931880E+01  0.9665100E+01 -0.4105000E+00  0.1252459E+00  0.2450954E+01  0.9654448E-01 -0.7978531E-01
 -0.3865100E+01  0.9331180E+01 -0.4105000E+00  0.1056357E+00  0.2569010E+01  0.8878726E-01 -0.5723394E-01
 -0.4761110E+01  0.8907400E+01 -0.4105000E+00  0.8782651E-01  0.2757732E+01  0.8143499E-01 -0.3289128E-01
 -0.5611260E+01  0.8397840E+01 -0.4105000E+00  0.7487158E-01  0.3050792E+01  0.7456315E-01 -0.6789078E-02
 -0.6407370E+01  0.7807410E+01 -0.4105000E+00  0.7143814E-01 -0.2854169E+01  0.6850757E-01  0.2025145E-01
 -0.7141780E+01  0.7141780E+01 -0.4105000E+00  0.7945064E-01 -0.2497603E+01  0.6353723E-01  0.4770141E-01