 VARIABLES="X" "Y" "Z" "abs(eta) (m)" "angle(phi) (rad)" "PRE1" "PRE2"
ZONE N=   3200 ,E =    3136 ,F=FEPOINT,ET=QUADRILATERAL
  0.1010000E+02  0.0000000E+00  0.0000000E+00  0.1554149E+00  0.2351617E+01  0.1093907E+00 -0.1103968E+00
  0.1005140E+02  0.9899730E+00  0.0000000E+00  0.1355044E+00  0.2416288E+01  0.1013976E+00 -0.8988867E-01
  0.9905930E+01  0.1970410E+01  0.0000000E+00  0.1148554E+00  0.2518053E+01  0.9324156E-01 -0.6706546E-01
  0.9665100E+01  0.2931880E+01  0.0000000E+00  0.9553861E-01  0.2676826E+01  0.8540445E-01 -0.4282179E-01
  0.9331180E+01  0.3865100E+01  0.0000000E+00  0.8024721E-01  0.2921056E+01  0.7830364E-01 -0.1755432E-01
  0.8907400E+01  0.4761110E+01  0.0000000E+00  0.7255477E-01 -0.3015577E+01  0.7197946E-01  0.9118845E-02
  0.8397840E+01  0.5611260E+01  0.0000000E+00  0.7618775E-01 -0.2630512E+01  0.6645219E-01  0.3726500E-01
  0.7807410E+01  0.6407370E+01  0.0000000E+00  0.9050389E-01 -0.2325294E+01  0.6198814E-01  0.6594259E-01
  0.7141780E+01  0.7141780E+01  0.0000000E+00  0.1111934E+00 -0.2127551E+01  0.5875835E-01  0.9440041E-01
  0.6407370E+01  0.7807410E+01  0.0000000E+00  0.1353517E+00 -0.2003788E+01  0.5679194E-01  0.1228607E+00
  0.5611260E+01  0.8397840E+01  0.0000000E+00  0.1615855E+00 -0.1925155E+01  0.5606844E-01  0.1515461E+00
  0.4761110E+01  0.8907410E+01  0.0000000E+00  0.1883745E+00 -0.1875415E+01  0.5649908E-01  0.1797020E+00
  0.3865100E+01  0.9331180E+01  0.0000000E+00  0.2143616E+00 -0.1844381E+01  0.5791716E-01  0.2063892E+00
  0.2931870E+01  0.9665100E+01  0.0000000E+00  0.2393989E+00 -0.1825519E+01  0.6032298E-01  0.2316743E+00
  0.1970410E+01  0.9905930E+01  0.0000000E+00  0.2637401E+00 -0.1814617E+01  0.6367010E-01  0.2559394E+00
  0.9899730E+00  0.1005140E+02  0.0000000E+00  0.2868614E+00 -0.1808678E+01  0.6759719E-01  0.2787833E+00
 -0.4414850E-06  0.1010000E+02  0.0000000E+00  0.3077862E+00 -0.1805979E+01  0.7172058E-01  0.2993134E+00
 -0.9899740E+00  0.1005140E+02  0.0000000E+00  0.3263969E+00 -0.1805867E+01  0.7602178E-01  0.3174203E+00
 -0.1970410E+01  0.9905930E+01  0.0000000E+00  0.3431612E+00 -0.1807459E+01  0.8045744E-01  0.3335958E+00
 -0.2931880E+01  0.9665100E+01  0.0000000E+00  0.3580309E+00 -0.1809458E+01  0.8463933E-01  0.3478826E+00
 -0.3865100E+01  0.9331180E+01  0.0000000E+00  0.3701620E+00 -0.1811400E+01  0.8820565E-01  0.3594992E+00
 -0.4761110E+01  0.8907400E+01  0.0000000E+00  0.3792912E+00 -0.1813454E+01  0.9113739E-01  0.3681791E+00
 -0.5611260E+01  0.8397840E+01  0.0000000E+00  0.3859001E+00 -0.1815299E+01  0.9341612E-01  0.3744226E+00
 -0.6407370E+01  0.7807410E+01  0.0000000E+00  0.3903249E+00 -0.1816283E+01  0.9485998E-01  0.3786227E+00
 -0.7141780E+01  0.7141780E+01  0.0000000E+00  0.3919387E+00 -0.1816524E+01  0.9534381E-01  0.3801651E+00
 -0.7807410E+01  0.6407370E+01  0.0000000E+00  0.3903252E+00 -0.1816283E+01  0.9486000E-01  0.3786230E+00
 -0.8397840E+01  0.5611260E+01  0.0000000E+00  0.3858999E+00 -0.1815299E+01  0.9341618E-01  0.3744224E+00
 -0.8907410E+01  0.4761110E+01  0.0000000E+00  0.3792907E+00 -0.1813454E+01  0.9113714E-01  0.3681785E+00
 -0.9331180E+01  0.3865100E+01  0.0000000E+00  0.3701625E+00 -0.1811400E+01  0.8820564E-01  0.3594997E+00
 -0.9665100E+01  0.2931880E+01  0.0000000E+00  0.3580307E+00 -0.1809458E+01  0.8463938E-01  0.3478824E+00
 -0.9905930E+01  0.1970410E+01  0.0000000E+00  0.3431617E+00 -0.1807459E+01  0.8045751E-01  0.3335963E+00
 -0.1005140E+02  0.9899730E+00  0.0000000E+00  0.3263969E+00 -0.1805867E+01  0.7602177E-01  0.3174203E+00
 -0.1010000E+02 -0.8829700E-06  0.0000000E+00  0.3077864E+00 -0.1805979E+01  0.7172072E-01  0.2993136E+00
 -0.1005140E+02 -0.9899740E+00  0.0000000E+00  0.2868617E+00 -0.1808678E+01  0.6759724E-01  0.2787835E+00
 -0.9905930E+01 -0.1970410E+01  0.0000000E+00  0.2637400E+00 -0.1814618E+01  0.6367022E-01  0.2559392E+00
 -0.9665100E+01 -0.2931880E+01  0.0000000E+00  0.2393991E+00 -0.1825519E+01  0.6032299E-01  0.2316745E+00
 -0.9331180E+01 -0.3865100E+01  0.0000000E+00  0.2143617E+00 -0.1844381E+01  0.5791714E-01  0.2063892E+00
 -0.8907400E+01 -0.4761110E+01  0.0000000E+00  0.1883747E+00 -0.1875415E+01  0.5649915E-01  0.1797021E+00
 -0.8397840E+01 -0.5611260E+01  0.0000000E+00  0.1615859E+00 -0.1925155E+01  0.5606857E-01  0.1515464E+00
 -0.7807400E+01 -0.6407370E+01  0.0000000E+00  0.1353519E+00 -0.2003788E+01  0.5679206E-01  0.1228609E+00
 -0.7141780E+01 -0.7141780E+01  0.0000000E+00  0.1111935E+00 -0.2127551E+01  0.5875839E-01  0.9440041E-01
 -0.6407370E+01 -0.7807410E+01  0.0000000E+00  0.9050405E-01 -0.2325293E+01  0.6198820E-01  0.6594275E-01
 -0.5611260E+01 -0.8397850E+01  0.0000000E+00  0.7618795E-01 -0.2630511E+01  0.6645236E-01  0.3726511E-01
 -0.4761110E+01 -0.8907410E+01  0.0000000E+00  0.7255498E-01 -0.3015576E+01  0.7197964E-01  0.9118985E-02
 -0.3865100E+01 -0.9331190E+01  0.0000000E+00  0.8024725E-01  0.2921059E+01  0.7830372E-01 -0.1755413E-01
 -0.2931870E+01 -0.9665100E+01  0.0000000E+00  0.9553870E-01  0.2676826E+01  0.8540452E-01 -0.4282184E-01
 -0.1970410E+01 -0.9905930E+01  0.0000000E+00  0.1148554E+00  0.2518054E+01  0.9324164E-01 -0.6706542E-01
 -0.9899710E+00 -0.1005140E+02  0.0000000E+00  0.1355045E+00  0.2416290E+01  0.1013978E+00 -0.8988858E-01
  0.1204410E-06 -0.1010000E+02  0.0000000E+00  0.1554147E+00  0.2351618E+01  0.1093907E+00 -0.1103966E+00
  0.9899760E+00 -0.1005140E+02  0.0000000E+00  0.1738859E+00  0.2310186E+01  0.1171708E+00 -0.1284808E+00
  0.1970410E+01 -0.9905930E+01  0.0000000E+00  0.1909778E+00  0.2282376E+01  0.1247145E+00 -0.1446335E+00
  0.2931880E+01 -0.9665100E+01  0.0000000E+00  0.2063294E+00  0.2262545E+01  0.1316144E+00 -0.1589008E+00
  0.3865100E+01 -0.9331180E+01  0.0000000E+00  0.2189886E+00  0.2249188E+01  0.1374245E+00 -0.1705007E+00
  0.4761110E+01 -0.8907410E+01  0.0000000E+00  0.2286692E+00  0.2241294E+01  0.1420896E+00 -0.1791652E+00
  0.5611260E+01 -0.8397840E+01  0.0000000E+00  0.2357495E+00  0.2236606E+01  0.1456216E+00 -0.1853974E+00
  0.6407370E+01 -0.7807410E+01  0.0000000E+00  0.2404315E+00  0.2233145E+01  0.1478583E+00 -0.1895923E+00
  0.7141780E+01 -0.7141780E+01  0.0000000E+00  0.2421140E+00  0.2231707E+01  0.1486184E+00 -0.1911328E+00
  0.7807410E+01 -0.6407370E+01  0.0000000E+00  0.2404314E+00  0.2233144E+01  0.1478580E+00 -0.1895923E+00
  0.8397840E+01 -0.5611260E+01  0.0000000E+00  0.2357495E+00  0.2236605E+01  0.1456213E+00 -0.1853975E+00
  0.8907410E+01 -0.4761110E+01  0.0000000E+00  0.2286692E+00  0.2241293E+01  0.1420895E+00 -0.1791653E+00
  0.9331180E+01 -0.3865100E+01  0.0000000E+00  0.2189887E+00  0.2249188E+01  0.1374245E+00 -0.1705009E+00
  0.9665100E+01 -0.2931870E+01  0.0000000E+00  0.2063295E+00  0.2262545E+01  0.1316144E+00 -0.1589009E+00
  0.9905930E+01 -0.1970410E+01  0.0000000E+00  0.1909779E+00  0.2282376E+01  0.1247145E+00 -0.1446336E+00
  0.1005140E+02 -0.9899690E+00  0.0000000E+00  0.1738858E+00  0.2310186E+01  0.1171707E+00 -0.1284808E+00
  0.1010000E+02  0.0000000E+00 -0.2568960E-01  0.1552850E+00  0.2351556E+01  0.1092926E+00 -0.1103112E+00
  0.1005140E+02  0.9899730E+00 -0.2568960E-01  0.1354076E+00  0.2416063E+01  0.1013049E+00 -0.8984730E-01
  0.9905930E+01  0.1970410E+01 -0.2568960E-01  0.1147555E+00  0.2517996E+01  0.9315666E-01 -0.6701249E-01
  0.9665100E+01  0.2931880E+01 -0.2568960E-01  0.9546427E-01  0.2676481E+01  0.8532325E-01 -0.4281788E-01
  0.9331180E+01  0.3865100E+01 -0.2568960E-01  0.8017447E-01  0.2920938E+01  0.7823058E-01 -0.1754767E-01
  0.8907400E+01  0.4761110E+01 -0.2568960E-01  0.7247736E-01 -0.3015814E+01  0.7190481E-01  0.9092075E-02
  0.8397840E+01  0.5611260E+01 -0.2568960E-01  0.7611509E-01 -0.2630552E+01  0.6639034E-01  0.3722674E-01
  0.7807410E+01  0.6407370E+01 -0.2568960E-01  0.9040581E-01 -0.2325295E+01  0.6192106E-01  0.6587104E-01
  0.7141780E+01  0.7141780E+01 -0.2568960E-01  0.1110885E+00 -0.2127536E+01  0.5870150E-01  0.9431218E-01
  0.6407370E+01  0.7807410E+01 -0.2568960E-01  0.1352302E+00 -0.2003690E+01  0.5672901E-01  0.1227560E+00
  0.5611260E+01  0.8397840E+01 -0.2568960E-01  0.1614378E+00 -0.1925146E+01  0.5601578E-01  0.1514081E+00
  0.4761110E+01  0.8907410E+01 -0.2568960E-01  0.1882132E+00 -0.1875341E+01  0.5643739E-01  0.1795523E+00
  0.3865100E+01  0.9331180E+01 -0.2568960E-01  0.2141702E+00 -0.1844365E+01  0.5786211E-01  0.2062058E+00
  0.2931870E+01  0.9665100E+01 -0.2568960E-01  0.2392093E+00 -0.1825462E+01  0.6026216E-01  0.2314942E+00
  0.1970410E+01  0.9905930E+01 -0.2568960E-01  0.2635030E+00 -0.1814613E+01  0.6361184E-01  0.2557095E+00
  0.9899730E+00  0.1005140E+02 -0.2568960E-01  0.2866348E+00 -0.1808637E+01  0.6753244E-01  0.2785658E+00
 -0.4414850E-06  0.1010000E+02 -0.2568960E-01  0.3075163E+00 -0.1805974E+01  0.7165603E-01  0.2990513E+00
 -0.9899740E+00  0.1005140E+02 -0.2568960E-01  0.3261467E+00 -0.1805844E+01  0.7595598E-01  0.3171787E+00
 -0.1970410E+01  0.9905930E+01 -0.2568960E-01  0.3428550E+00 -0.1807459E+01  0.8038577E-01  0.3332981E+00
 -0.2931880E+01  0.9665100E+01 -0.2568960E-01  0.3577554E+00 -0.1809441E+01  0.8456829E-01  0.3476164E+00
 -0.3865100E+01  0.9331180E+01 -0.2568960E-01  0.3698398E+00 -0.1811400E+01  0.8812889E-01  0.3591863E+00
 -0.4761110E+01  0.8907400E+01 -0.2568960E-01  0.3790035E+00 -0.1813446E+01  0.9106518E-01  0.3679005E+00
 -0.5611260E+01  0.8397840E+01 -0.2568960E-01  0.3855563E+00 -0.1815301E+01  0.9333401E-01  0.3740888E+00
 -0.6407370E+01  0.7807410E+01 -0.2568960E-01  0.3900289E+00 -0.1816276E+01  0.9478549E-01  0.3783362E+00
 -0.7141780E+01  0.7141780E+01 -0.2568960E-01  0.3915979E+00 -0.1816526E+01  0.9526182E-01  0.3798343E+00
 -0.7807410E+01  0.6407370E+01 -0.2568960E-01  0.3900291E+00 -0.1816276E+01  0.9478556E-01  0.3783363E+00
 -0.8397840E+01  0.5611260E+01 -0.2568960E-01  0.3855568E+00 -0.1815301E+01  0.9333408E-01  0.3740892E+00
 -0.8907410E+01  0.4761110E+01 -0.2568960E-01  0.3790028E+00 -0.1813446E+01  0.9106511E-01  0.3678998E+00
 -0.9331180E+01  0.3865100E+01 -0.2568960E-01  0.3698398E+00 -0.1811401E+01  0.8812894E-01  0.3591863E+00
 -0.9665100E+01  0.2931880E+01 -0.2568960E-01  0.3577559E+00 -0.1809441E+01  0.8456840E-01  0.3476169E+00
 -0.9905930E+01  0.1970410E+01 -0.2568960E-01  0.3428555E+00 -0.1807459E+01  0.8038589E-01  0.3332986E+00
 -0.1005140E+02  0.9899730E+00 -0.2568960E-01  0.3261472E+00 -0.1805843E+01  0.7595599E-01  0.3171793E+00
 -0.1010000E+02 -0.8829700E-06 -0.2568960E-01  0.3075165E+00 -0.1805973E+01  0.7165602E-01  0.2990515E+00
 -0.1005140E+02 -0.9899740E+00 -0.2568960E-01  0.2866346E+00 -0.1808637E+01  0.6753249E-01  0.2785655E+00
 -0.9905930E+01 -0.1970410E+01 -0.2568960E-01  0.2635034E+00 -0.1814613E+01  0.6361199E-01  0.2557099E+00
 -0.9665100E+01 -0.2931880E+01 -0.2568960E-01  0.2392091E+00 -0.1825463E+01  0.6026226E-01  0.2314940E+00
 -0.9331180E+01 -0.3865100E+01 -0.2568960E-01  0.2141707E+00 -0.1844365E+01  0.5786220E-01  0.2062063E+00
 -0.8907400E+01 -0.4761110E+01 -0.2568960E-01  0.1882133E+00 -0.1875341E+01  0.5643747E-01  0.1795524E+00
 -0.8397840E+01 -0.5611260E+01 -0.2568960E-01  0.1614381E+00 -0.1925146E+01  0.5601580E-01  0.1514083E+00
 -0.7807400E+01 -0.6407370E+01 -0.2568960E-01  0.1352301E+00 -0.2003691E+01  0.5672905E-01  0.1227558E+00
 -0.7141780E+01 -0.7141780E+01 -0.2568960E-01  0.1110887E+00 -0.2127536E+01  0.5870159E-01  0.9431236E-01
 -0.6407370E+01 -0.7807410E+01 -0.2568960E-01  0.9040596E-01 -0.2325295E+01  0.6192120E-01  0.6587111E-01
 -0.5611260E+01 -0.8397850E+01 -0.2568960E-01  0.7611516E-01 -0.2630550E+01  0.6639033E-01  0.3722690E-01
 -0.4761110E+01 -0.8907410E+01 -0.2568960E-01  0.7247747E-01 -0.3015811E+01  0.7190489E-01  0.9092345E-02
 -0.3865100E+01 -0.9331190E+01 -0.2568960E-01  0.8017461E-01  0.2920940E+01  0.7823075E-01 -0.1754756E-01
 -0.2931870E+01 -0.9665100E+01 -0.2568960E-01  0.9546442E-01  0.2676481E+01  0.8532336E-01 -0.4281798E-01
 -0.1970410E+01 -0.9905930E+01 -0.2568960E-01  0.1147556E+00  0.2517998E+01  0.9315681E-01 -0.6701229E-01
 -0.9899710E+00 -0.1005140E+02 -0.2568960E-01  0.1354076E+00  0.2416064E+01  0.1013050E+00 -0.8984719E-01
  0.1204410E-06 -0.1010000E+02 -0.2568960E-01  0.1552849E+00  0.2351557E+01  0.1092927E+00 -0.1103110E+00
  0.9899760E+00 -0.1005140E+02 -0.2568960E-01  0.1737711E+00  0.2310015E+01  0.1170714E+00 -0.1284160E+00
  0.1970410E+01 -0.9905930E+01 -0.2568960E-01  0.1908134E+00  0.2282348E+01  0.1246031E+00 -0.1445124E+00
  0.2931880E+01 -0.9665100E+01 -0.2568960E-01  0.2061907E+00  0.2262412E+01  0.1315048E+00 -0.1588115E+00
  0.3865100E+01 -0.9331180E+01 -0.2568960E-01  0.2188064E+00  0.2249152E+01  0.1373041E+00 -0.1703638E+00
  0.4761110E+01 -0.8907410E+01 -0.2568960E-01  0.2285185E+00  0.2241181E+01  0.1419757E+00 -0.1790632E+00
  0.5611260E+01 -0.8397840E+01 -0.2568960E-01  0.2355463E+00  0.2236587E+01  0.1454924E+00 -0.1852404E+00
  0.6407370E+01 -0.7807410E+01 -0.2568960E-01  0.2402718E+00  0.2233040E+01  0.1477401E+00 -0.1894819E+00
  0.7141780E+01 -0.7141780E+01 -0.2568960E-01  0.2419122E+00  0.2231678E+01  0.1484889E+00 -0.1909779E+00
  0.7807410E+01 -0.6407370E+01 -0.2568960E-01  0.2402717E+00  0.2233040E+01  0.1477401E+00 -0.1894818E+00
  0.8397840E+01 -0.5611260E+01 -0.2568960E-01  0.2355464E+00  0.2236587E+01  0.1454925E+00 -0.1852404E+00
  0.8907410E+01 -0.4761110E+01 -0.2568960E-01  0.2285186E+00  0.2241180E+01  0.1419757E+00 -0.1790633E+00
  0.9331180E+01 -0.3865100E+01 -0.2568960E-01  0.2188064E+00  0.2249152E+01  0.1373040E+00 -0.1703639E+00
  0.9665100E+01 -0.2931870E+01 -0.2568960E-01  0.2061907E+00  0.2262411E+01  0.1315047E+00 -0.1588116E+00
  0.9905930E+01 -0.1970410E+01 -0.2568960E-01  0.1908134E+00  0.2282348E+01  0.1246030E+00 -0.1445125E+00
  0.1005140E+02 -0.9899690E+00 -0.2568960E-01  0.1737709E+00  0.2310014E+01  0.1170712E+00 -0.1284160E+00
  0.1010000E+02  0.0000000E+00 -0.1027320E+00  0.1548766E+00  0.2351491E+01  0.1089980E+00 -0.1100282E+00
  0.1005140E+02  0.9899730E+00 -0.1027320E+00  0.1350574E+00  0.2415859E+01  0.1010247E+00 -0.8963547E-01
  0.9905930E+01  0.1970410E+01 -0.1027320E+00  0.1144442E+00  0.2517947E+01  0.9290063E-01 -0.6683516E-01
  0.9665100E+01  0.2931880E+01 -0.1027320E+00  0.9521893E-01  0.2676062E+01  0.8508607E-01 -0.4274348E-01
  0.9331180E+01  0.3865100E+01 -0.1027320E+00  0.7995099E-01  0.2920751E+01  0.7800926E-01 -0.1751330E-01
  0.8907400E+01  0.4761110E+01 -0.1027320E+00  0.7226064E-01 -0.3015957E+01  0.7169110E-01  0.9054650E-02
  0.8397840E+01  0.5611260E+01 -0.1027320E+00  0.7589734E-01 -0.2630573E+01  0.6620116E-01  0.3711890E-01
  0.7807410E+01  0.6407370E+01 -0.1027320E+00  0.9013025E-01 -0.2325331E+01  0.6173470E-01  0.6566802E-01
  0.7141780E+01  0.7141780E+01 -0.1027320E+00  0.1107732E+00 -0.2127469E+01  0.5852864E-01  0.9404843E-01
  0.6407370E+01  0.7807410E+01 -0.1027320E+00  0.1348627E+00 -0.2003533E+01  0.5655555E-01  0.1224313E+00
  0.5611260E+01  0.8397840E+01 -0.1027320E+00  0.1609888E+00 -0.1925115E+01  0.5585529E-01  0.1509887E+00
  0.4761110E+01  0.8907410E+01 -0.1027320E+00  0.1876940E+00 -0.1875252E+01  0.5626570E-01  0.1790620E+00
  0.3865100E+01  0.9331180E+01 -0.1027320E+00  0.2135840E+00 -0.1844327E+01  0.5769608E-01  0.2056436E+00
  0.2931870E+01  0.9665100E+01 -0.1027320E+00  0.2385831E+00 -0.1825405E+01  0.6009103E-01  0.2308917E+00
  0.1970410E+01  0.9905930E+01 -0.1027320E+00  0.2627772E+00 -0.1814615E+01  0.6343700E-01  0.2550052E+00
  0.9899730E+00  0.1005140E+02 -0.1027320E+00  0.2858710E+00 -0.1808602E+01  0.6734283E-01  0.2778258E+00
 -0.4414850E-06  0.1010000E+02 -0.1027320E+00  0.3066834E+00 -0.1805980E+01  0.7146374E-01  0.2982409E+00
 -0.9899740E+00  0.1005140E+02 -0.1027320E+00  0.3252996E+00 -0.1805846E+01  0.7575931E-01  0.3163548E+00
 -0.1970410E+01  0.9905930E+01 -0.1027320E+00  0.3419129E+00 -0.1807487E+01  0.8017404E-01  0.3323801E+00
 -0.2931880E+01  0.9665100E+01 -0.1027320E+00  0.3568153E+00 -0.1809451E+01  0.8434942E-01  0.3467021E+00
 -0.3865100E+01  0.9331180E+01 -0.1027320E+00  0.3688408E+00 -0.1811434E+01  0.8790285E-01  0.3582131E+00
 -0.4761110E+01  0.8907400E+01 -0.1027320E+00  0.3780184E+00 -0.1813476E+01  0.9083974E-01  0.3669415E+00
 -0.5611260E+01  0.8397840E+01 -0.1027320E+00  0.3844979E+00 -0.1815343E+01  0.9309311E-01  0.3730580E+00
 -0.6407370E+01  0.7807410E+01 -0.1027320E+00  0.3890113E+00 -0.1816308E+01  0.9455043E-01  0.3773460E+00
 -0.7141780E+01  0.7141780E+01 -0.1027320E+00  0.3905407E+00 -0.1816569E+01  0.9502096E-01  0.3788048E+00
 -0.7807410E+01  0.6407370E+01 -0.1027320E+00  0.3890116E+00 -0.1816308E+01  0.9455046E-01  0.3773463E+00
 -0.8397840E+01  0.5611260E+01 -0.1027320E+00  0.3844979E+00 -0.1815343E+01  0.9309322E-01  0.3730580E+00
 -0.8907410E+01  0.4761110E+01 -0.1027320E+00  0.3780179E+00 -0.1813476E+01  0.9083962E-01  0.3669410E+00
 -0.9331180E+01  0.3865100E+01 -0.1027320E+00  0.3688409E+00 -0.1811434E+01  0.8790290E-01  0.3582132E+00
 -0.9665100E+01  0.2931880E+01 -0.1027320E+00  0.3568163E+00 -0.1809450E+01  0.8434948E-01  0.3467031E+00
 -0.9905930E+01  0.1970410E+01 -0.1027320E+00  0.3419133E+00 -0.1807487E+01  0.8017406E-01  0.3323806E+00
 -0.1005140E+02  0.9899730E+00 -0.1027320E+00  0.3252994E+00 -0.1805846E+01  0.7575931E-01  0.3163546E+00
 -0.1010000E+02 -0.8829700E-06 -0.1027320E+00  0.3066834E+00 -0.1805980E+01  0.7146376E-01  0.2982409E+00
 -0.1005140E+02 -0.9899740E+00 -0.1027320E+00  0.2858707E+00 -0.1808603E+01  0.6734291E-01  0.2778255E+00
 -0.9905930E+01 -0.1970410E+01 -0.1027320E+00  0.2627774E+00 -0.1814615E+01  0.6343707E-01  0.2550052E+00
 -0.9665100E+01 -0.2931880E+01 -0.1027320E+00  0.2385834E+00 -0.1825404E+01  0.6009107E-01  0.2308919E+00
 -0.9331180E+01 -0.3865100E+01 -0.1027320E+00  0.2135843E+00 -0.1844328E+01  0.5769622E-01  0.2056438E+00
 -0.8907400E+01 -0.4761110E+01 -0.1027320E+00  0.1876942E+00 -0.1875252E+01  0.5626577E-01  0.1790622E+00
 -0.8397840E+01 -0.5611260E+01 -0.1027320E+00  0.1609889E+00 -0.1925115E+01  0.5585528E-01  0.1509888E+00
 -0.7807400E+01 -0.6407370E+01 -0.1027320E+00  0.1348631E+00 -0.2003533E+01  0.5655572E-01  0.1224316E+00
 -0.7141780E+01 -0.7141780E+01 -0.1027320E+00  0.1107733E+00 -0.2127468E+01  0.5852858E-01  0.9404858E-01
 -0.6407370E+01 -0.7807410E+01 -0.1027320E+00  0.9013042E-01 -0.2325331E+01  0.6173482E-01  0.6566814E-01
 -0.5611260E+01 -0.8397850E+01 -0.1027320E+00  0.7589749E-01 -0.2630573E+01  0.6620131E-01  0.3711895E-01
 -0.4761110E+01 -0.8907410E+01 -0.1027320E+00  0.7226082E-01 -0.3015955E+01  0.7169126E-01  0.9054814E-02
 -0.3865100E+01 -0.9331190E+01 -0.1027320E+00  0.7995109E-01  0.2920753E+01  0.7800938E-01 -0.1751323E-01
 -0.2931870E+01 -0.9665100E+01 -0.1027320E+00  0.9521919E-01  0.2676062E+01  0.8508629E-01 -0.4274364E-01
 -0.1970410E+01 -0.9905930E+01 -0.1027320E+00  0.1144441E+00  0.2517949E+01  0.9290071E-01 -0.6683495E-01
 -0.9899710E+00 -0.1005140E+02 -0.1027320E+00  0.1350574E+00  0.2415861E+01  0.1010248E+00 -0.8963528E-01
  0.1204410E-06 -0.1010000E+02 -0.1027320E+00  0.1548766E+00  0.2351492E+01  0.1089980E+00 -0.1100281E+00
  0.9899760E+00 -0.1005140E+02 -0.1027320E+00  0.1733460E+00  0.2309864E+01  0.1167657E+00 -0.1281195E+00
  0.1970410E+01 -0.9905930E+01 -0.1027320E+00  0.1903002E+00  0.2282361E+01  0.1242698E+00 -0.1441221E+00
  0.2931880E+01 -0.9665100E+01 -0.1027320E+00  0.2056741E+00  0.2262318E+01  0.1311604E+00 -0.1584260E+00
  0.3865100E+01 -0.9331180E+01 -0.1027320E+00  0.2182343E+00  0.2249148E+01  0.1369443E+00 -0.1699190E+00
  0.4761110E+01 -0.8907410E+01 -0.1027320E+00  0.2279568E+00  0.2241115E+01  0.1416149E+00 -0.1786324E+00
  0.5611260E+01 -0.8397840E+01 -0.1027320E+00  0.2349135E+00  0.2236622E+01  0.1451081E+00 -0.1847376E+00
  0.6407370E+01 -0.7807410E+01 -0.1027320E+00  0.2396765E+00  0.2232986E+01  0.1473639E+00 -0.1890203E+00
  0.7141780E+01 -0.7141780E+01 -0.1027320E+00  0.2412801E+00  0.2231691E+01  0.1481034E+00 -0.1904770E+00
  0.7807410E+01 -0.6407370E+01 -0.1027320E+00  0.2396765E+00  0.2232985E+01  0.1473638E+00 -0.1890204E+00
  0.8397840E+01 -0.5611260E+01 -0.1027320E+00  0.2349136E+00  0.2236622E+01  0.1451081E+00 -0.1847377E+00
  0.8907410E+01 -0.4761110E+01 -0.1027320E+00  0.2279568E+00  0.2241114E+01  0.1416148E+00 -0.1786325E+00
  0.9331180E+01 -0.3865100E+01 -0.1027320E+00  0.2182342E+00  0.2249148E+01  0.1369442E+00 -0.1699190E+00
  0.9665100E+01 -0.2931870E+01 -0.1027320E+00  0.2056741E+00  0.2262318E+01  0.1311604E+00 -0.1584259E+00
  0.9905930E+01 -0.1970410E+01 -0.1027320E+00  0.1903002E+00  0.2282361E+01  0.1242697E+00 -0.1441222E+00
  0.1005140E+02 -0.9899690E+00 -0.1027320E+00  0.1733459E+00  0.2309864E+01  0.1167656E+00 -0.1281195E+00
  0.1010000E+02  0.0000000E+00 -0.2310450E+00  0.1542245E+00  0.2351221E+01  0.1085095E+00 -0.1095942E+00
  0.1005140E+02  0.9899730E+00 -0.2310450E+00  0.1344752E+00  0.2415558E+01  0.1005623E+00 -0.8927936E-01
  0.9905930E+01  0.1970410E+01 -0.2310450E+00  0.1139822E+00  0.2517237E+01  0.9247829E-01 -0.6663107E-01
  0.9665100E+01  0.2931880E+01 -0.2310450E+00  0.9482293E-01  0.2675442E+01  0.8470578E-01 -0.4261830E-01
  0.9331180E+01  0.3865100E+01 -0.2310450E+00  0.7959474E-01  0.2920248E+01  0.7765287E-01 -0.1747438E-01
  0.8907400E+01  0.4761110E+01 -0.2310450E+00  0.7192087E-01 -0.3016167E+01  0.7135590E-01  0.8997052E-02
  0.8397840E+01  0.5611260E+01 -0.2310450E+00  0.7551775E-01 -0.2630951E+01  0.6588402E-01  0.3690835E-01
  0.7807410E+01  0.6407370E+01 -0.2310450E+00  0.8968904E-01 -0.2325590E+01  0.6144940E-01  0.6533065E-01
  0.7141780E+01  0.7141780E+01 -0.2310450E+00  0.1102579E+00 -0.2127468E+01  0.5825626E-01  0.9361100E-01
  0.6407370E+01  0.7807410E+01 -0.2310450E+00  0.1342645E+00 -0.2003427E+01  0.5629177E-01  0.1218942E+00
  0.5611260E+01  0.8397840E+01 -0.2310450E+00  0.1602709E+00 -0.1924960E+01  0.5558284E-01  0.1503240E+00
  0.4761110E+01  0.8907410E+01 -0.2310450E+00  0.1868347E+00 -0.1875208E+01  0.5600031E-01  0.1782447E+00
  0.3865100E+01  0.9331180E+01 -0.2310450E+00  0.2126328E+00 -0.1844283E+01  0.5743005E-01  0.2047303E+00
  0.2931870E+01  0.9665100E+01 -0.2310450E+00  0.2375474E+00 -0.1825361E+01  0.5982014E-01  0.2298920E+00
  0.1970410E+01  0.9905930E+01 -0.2310450E+00  0.2616582E+00 -0.1814517E+01  0.6314201E-01  0.2539254E+00
  0.9899730E+00  0.1005140E+02 -0.2310450E+00  0.2846009E+00 -0.1808556E+01  0.6703097E-01  0.2765945E+00
 -0.4414850E-06  0.1010000E+02 -0.2310450E+00  0.3053351E+00 -0.1805955E+01  0.7114215E-01  0.2969315E+00
 -0.9899740E+00  0.1005140E+02 -0.2310450E+00  0.3238916E+00 -0.1805831E+01  0.7542694E-01  0.3149866E+00
 -0.1970410E+01  0.9905930E+01 -0.2310450E+00  0.3404807E+00 -0.1807435E+01  0.7982092E-01  0.3309920E+00
 -0.2931880E+01  0.9665100E+01 -0.2310450E+00  0.3552524E+00 -0.1809421E+01  0.8396986E-01  0.3451859E+00
 -0.3865100E+01  0.9331180E+01 -0.2310450E+00  0.3672281E+00 -0.1811421E+01  0.8751391E-01  0.3566480E+00
 -0.4761110E+01  0.8907400E+01 -0.2310450E+00  0.3763801E+00 -0.1813469E+01  0.9044336E-01  0.3653519E+00
 -0.5611260E+01  0.8397840E+01 -0.2310450E+00  0.3828958E+00 -0.1815313E+01  0.9269409E-01  0.3715064E+00
 -0.6407370E+01  0.7807410E+01 -0.2310450E+00  0.3873193E+00 -0.1816294E+01  0.9413377E-01  0.3757061E+00
 -0.7141780E+01  0.7141780E+01 -0.2310450E+00  0.3888361E+00 -0.1816560E+01  0.9460267E-01  0.3771523E+00
 -0.7807410E+01  0.6407370E+01 -0.2310450E+00  0.3873189E+00 -0.1816294E+01  0.9413379E-01  0.3757057E+00
 -0.8397840E+01  0.5611260E+01 -0.2310450E+00  0.3828960E+00 -0.1815313E+01  0.9269413E-01  0.3715066E+00
 -0.8907410E+01  0.4761110E+01 -0.2310450E+00  0.3763799E+00 -0.1813469E+01  0.9044324E-01  0.3653516E+00
 -0.9331180E+01  0.3865100E+01 -0.2310450E+00  0.3672286E+00 -0.1811421E+01  0.8751395E-01  0.3566485E+00
 -0.9665100E+01  0.2931880E+01 -0.2310450E+00  0.3552528E+00 -0.1809421E+01  0.8396988E-01  0.3451864E+00
 -0.9905930E+01  0.1970410E+01 -0.2310450E+00  0.3404807E+00 -0.1807435E+01  0.7982095E-01  0.3309920E+00
 -0.1005140E+02  0.9899730E+00 -0.2310450E+00  0.3238917E+00 -0.1805831E+01  0.7542689E-01  0.3149867E+00
 -0.1010000E+02 -0.8829700E-06 -0.2310450E+00  0.3053355E+00 -0.1805954E+01  0.7114217E-01  0.2969319E+00
 -0.1005140E+02 -0.9899740E+00 -0.2310450E+00  0.2846011E+00 -0.1808556E+01  0.6703091E-01  0.2765947E+00
 -0.9905930E+01 -0.1970410E+01 -0.2310450E+00  0.2616588E+00 -0.1814516E+01  0.6314197E-01  0.2539260E+00
 -0.9665100E+01 -0.2931880E+01 -0.2310450E+00  0.2375471E+00 -0.1825361E+01  0.5982011E-01  0.2298917E+00
 -0.9331180E+01 -0.3865100E+01 -0.2310450E+00  0.2126328E+00 -0.1844284E+01  0.5743020E-01  0.2047303E+00
 -0.8907400E+01 -0.4761110E+01 -0.2310450E+00  0.1868349E+00 -0.1875208E+01  0.5600034E-01  0.1782449E+00
 -0.8397840E+01 -0.5611260E+01 -0.2310450E+00  0.1602710E+00 -0.1924959E+01  0.5558287E-01  0.1503242E+00
 -0.7807400E+01 -0.6407370E+01 -0.2310450E+00  0.1342645E+00 -0.2003427E+01  0.5629178E-01  0.1218942E+00
 -0.7141780E+01 -0.7141780E+01 -0.2310450E+00  0.1102581E+00 -0.2127470E+01  0.5825645E-01  0.9361105E-01
 -0.6407370E+01 -0.7807410E+01 -0.2310450E+00  0.8968914E-01 -0.2325590E+01  0.6144948E-01  0.6533071E-01
 -0.5611260E+01 -0.8397850E+01 -0.2310450E+00  0.7551794E-01 -0.2630951E+01  0.6588420E-01  0.3690843E-01
 -0.4761110E+01 -0.8907410E+01 -0.2310450E+00  0.7192097E-01 -0.3016165E+01  0.7135598E-01  0.8997207E-02
 -0.3865100E+01 -0.9331190E+01 -0.2310450E+00  0.7959480E-01  0.2920251E+01  0.7765299E-01 -0.1747411E-01
 -0.2931870E+01 -0.9665100E+01 -0.2310450E+00  0.9482318E-01  0.2675441E+01  0.8470599E-01 -0.4261843E-01
 -0.1970410E+01 -0.9905930E+01 -0.2310450E+00  0.1139821E+00  0.2517239E+01  0.9247836E-01 -0.6663091E-01
 -0.9899710E+00 -0.1005140E+02 -0.2310450E+00  0.1344751E+00  0.2415559E+01  0.1005624E+00 -0.8927918E-01
  0.1204410E-06 -0.1010000E+02 -0.2310450E+00  0.1542246E+00  0.2351223E+01  0.1085097E+00 -0.1095941E+00
  0.9899760E+00 -0.1005140E+02 -0.2310450E+00  0.1726361E+00  0.2309591E+01  0.1162527E+00 -0.1276266E+00
  0.1970410E+01 -0.9905930E+01 -0.2310450E+00  0.1895566E+00  0.2281956E+01  0.1237260E+00 -0.1436092E+00
  0.2931880E+01 -0.9665100E+01 -0.2310450E+00  0.2048054E+00  0.2262104E+01  0.1305727E+00 -0.1577847E+00
  0.3865100E+01 -0.9331180E+01 -0.2310450E+00  0.2173167E+00  0.2248964E+01  0.1363373E+00 -0.1692296E+00
  0.4761110E+01 -0.8907410E+01 -0.2310450E+00  0.2270119E+00  0.2240924E+01  0.1409939E+00 -0.1779189E+00
  0.5611260E+01 -0.8397840E+01 -0.2310450E+00  0.2339968E+00  0.2236310E+01  0.1444843E+00 -0.1840619E+00
  0.6407370E+01 -0.7807410E+01 -0.2310450E+00  0.2386736E+00  0.2232804E+01  0.1467130E+00 -0.1882561E+00
  0.7141780E+01 -0.7141780E+01 -0.2310450E+00  0.2402652E+00  0.2231526E+01  0.1474491E+00 -0.1897001E+00
  0.7807410E+01 -0.6407370E+01 -0.2310450E+00  0.2386738E+00  0.2232804E+01  0.1467131E+00 -0.1882563E+00
  0.8397840E+01 -0.5611260E+01 -0.2310450E+00  0.2339970E+00  0.2236309E+01  0.1444844E+00 -0.1840621E+00
  0.8907410E+01 -0.4761110E+01 -0.2310450E+00  0.2270119E+00  0.2240924E+01  0.1409939E+00 -0.1779189E+00
  0.9331180E+01 -0.3865100E+01 -0.2310450E+00  0.2173166E+00  0.2248964E+01  0.1363373E+00 -0.1692295E+00
  0.9665100E+01 -0.2931870E+01 -0.2310450E+00  0.2048053E+00  0.2262104E+01  0.1305726E+00 -0.1577847E+00
  0.9905930E+01 -0.1970410E+01 -0.2310450E+00  0.1895566E+00  0.2281955E+01  0.1237260E+00 -0.1436092E+00
  0.1005140E+02 -0.9899690E+00 -0.2310450E+00  0.1726360E+00  0.2309590E+01  0.1162525E+00 -0.1276266E+00
  0.1010000E+02  0.0000000E+00 -0.4105000E+00  0.1533342E+00  0.2350796E+01  0.1078367E+00 -0.1090074E+00
  0.1005140E+02  0.9899730E+00 -0.4105000E+00  0.1336638E+00  0.2415232E+01  0.9992655E-01 -0.8877327E-01
  0.9905930E+01  0.1970410E+01 -0.4105000E+00  0.1133332E+00  0.2516448E+01  0.9189950E-01 -0.6632420E-01
  0.9665100E+01  0.2931880E+01 -0.4105000E+00  0.9427468E-01  0.2674722E+01  0.8418550E-01 -0.4243250E-01
  0.9331180E+01  0.3865100E+01 -0.4105000E+00  0.7910763E-01  0.2919450E+01  0.7716377E-01 -0.1742901E-01
  0.8907400E+01  0.4761110E+01 -0.4105000E+00  0.7146128E-01 -0.3016435E+01  0.7090231E-01  0.8920601E-02
  0.8397840E+01  0.5611260E+01 -0.4105000E+00  0.7500829E-01 -0.2631493E+01  0.6545941E-01  0.3662389E-01
  0.7807410E+01  0.6407370E+01 -0.4105000E+00  0.8908760E-01 -0.2326028E+01  0.6106576E-01  0.6486581E-01
  0.7141780E+01  0.7141780E+01 -0.4105000E+00  0.1095450E+00 -0.2127517E+01  0.5788413E-01  0.9300288E-01
  0.6407370E+01  0.7807410E+01 -0.4105000E+00  0.1334335E+00 -0.2003383E+01  0.5593813E-01  0.1211422E+00
  0.5611260E+01  0.8397840E+01 -0.4105000E+00  0.1592712E+00 -0.1924857E+01  0.5522089E-01  0.1493920E+00
  0.4761110E+01  0.8907410E+01 -0.4105000E+00  0.1856405E+00 -0.1875219E+01  0.5564425E-01  0.1771048E+00
  0.3865100E+01  0.9331180E+01 -0.4105000E+00  0.2113195E+00 -0.1844236E+01  0.5706580E-01  0.2034685E+00
  0.2931870E+01  0.9665100E+01 -0.4105000E+00  0.2360977E+00 -0.1825351E+01  0.5945283E-01  0.2284896E+00
  0.1970410E+01  0.9905930E+01 -0.4105000E+00  0.2600830E+00 -0.1814439E+01  0.6274220E-01  0.2524016E+00
  0.9899730E+00  0.1005140E+02 -0.4105000E+00  0.2828260E+00 -0.1808528E+01  0.6660524E-01  0.2748714E+00
 -0.4414850E-06  0.1010000E+02 -0.4105000E+00  0.3034780E+00 -0.1805922E+01  0.7069992E-01  0.2951278E+00
 -0.9899740E+00  0.1005140E+02 -0.4105000E+00  0.3219182E+00 -0.1805833E+01  0.7496777E-01  0.3130673E+00
 -0.1970410E+01  0.9905930E+01 -0.4105000E+00  0.3384560E+00 -0.1807388E+01  0.7933076E-01  0.3290275E+00
 -0.2931880E+01  0.9665100E+01 -0.4105000E+00  0.3530637E+00 -0.1809395E+01  0.8344361E-01  0.3430614E+00
 -0.3865100E+01  0.9331180E+01 -0.4105000E+00  0.3650069E+00 -0.1811400E+01  0.8697722E-01  0.3544925E+00
 -0.4761110E+01  0.8907400E+01 -0.4105000E+00  0.3740839E+00 -0.1813465E+01  0.8989026E-01  0.3631233E+00
 -0.5611260E+01  0.8397840E+01 -0.4105000E+00  0.3806301E+00 -0.1815279E+01  0.9213331E-01  0.3693112E+00
 -0.6407370E+01  0.7807410E+01 -0.4105000E+00  0.3849481E+00 -0.1816279E+01  0.9355195E-01  0.3734074E+00
 -0.7141780E+01  0.7141780E+01 -0.4105000E+00  0.3864885E+00 -0.1816543E+01  0.9402499E-01  0.3748769E+00