 VARIABLES="X" "Y" "Z" "abs(eta) (m)" "angle(phi) (rad)" "PRE1" "PRE2"
ZONE N=   3200 ,E =    3136 ,F=FEPOINT,ET=QUADRILATERAL
  0.1100000E+02  0.0000000E+00  0.0000000E+00  0.1237385E+00 -0.2527570E+01  0.1011361E+00  0.7129316E-01
  0.1094700E+02  0.1078190E+01  0.0000000E+00  0.1370405E+00 -0.2165880E+01  0.7682191E-01  0.1134834E+00
  0.1078860E+02  0.2145990E+01  0.0000000E+00  0.1662693E+00 -0.1909055E+01  0.5517562E-01  0.1568475E+00
  0.1052630E+02  0.3193130E+01  0.0000000E+00  0.2044187E+00 -0.1750744E+01  0.3658638E-01  0.2011180E+00
  0.1016270E+02  0.4209520E+01  0.0000000E+00  0.2467234E+00 -0.1656727E+01  0.2117507E-01  0.2458130E+00
  0.9701130E+01  0.5185360E+01  0.0000000E+00  0.2902853E+00 -0.1601116E+01  0.8800147E-02  0.2901519E+00
  0.9146170E+01  0.6111270E+01  0.0000000E+00  0.3332396E+00 -0.1570001E+01 -0.2649356E-03  0.3332394E+00
  0.8503110E+01  0.6978330E+01  0.0000000E+00  0.3746287E+00 -0.1554666E+01 -0.6042452E-02  0.3745800E+00
  0.7778170E+01  0.7778170E+01  0.0000000E+00  0.4141054E+00 -0.1549469E+01 -0.8831045E-02  0.4140112E+00
  0.6978330E+01  0.8503110E+01  0.0000000E+00  0.4514573E+00 -0.1550307E+01 -0.9249465E-02  0.4513625E+00
  0.6111270E+01  0.9146170E+01  0.0000000E+00  0.4856629E+00 -0.1555125E+01 -0.7610840E-02  0.4856032E+00
  0.5185360E+01  0.9701130E+01  0.0000000E+00  0.5162857E+00 -0.1562524E+01 -0.4271056E-02  0.5162681E+00
  0.4209520E+01  0.1016270E+02  0.0000000E+00  0.5436192E+00 -0.1571435E+01  0.3474403E-03  0.5436191E+00
  0.3193130E+01  0.1052630E+02  0.0000000E+00  0.5681710E+00 -0.1580749E+01  0.5654616E-02  0.5681428E+00
  0.2145990E+01  0.1078860E+02  0.0000000E+00  0.5889828E+00 -0.1589531E+01  0.1103383E-01  0.5888795E+00
  0.1078190E+01  0.1094700E+02  0.0000000E+00  0.6056525E+00 -0.1597322E+01  0.1606332E-01  0.6054394E+00
 -0.4808250E-06  0.1100000E+02  0.0000000E+00  0.6186713E+00 -0.1603957E+01  0.2051159E-01  0.6183312E+00
 -0.1078190E+01  0.1094700E+02  0.0000000E+00  0.6288769E+00 -0.1609291E+01  0.2420232E-01  0.6284111E+00
 -0.2145990E+01  0.1078860E+02  0.0000000E+00  0.6353179E+00 -0.1612701E+01  0.2661488E-01  0.6347601E+00
 -0.3193130E+01  0.1052630E+02  0.0000000E+00  0.6375368E+00 -0.1613945E+01  0.2750009E-01  0.6369435E+00
 -0.4209520E+01  0.1016270E+02  0.0000000E+00  0.6360265E+00 -0.1613158E+01  0.2693475E-01  0.6354559E+00
 -0.5185370E+01  0.9701130E+01  0.0000000E+00  0.6317298E+00 -0.1610747E+01  0.2523104E-01  0.6312258E+00
 -0.6111270E+01  0.9146160E+01  0.0000000E+00  0.6237329E+00 -0.1606496E+01  0.2226207E-01  0.6233355E+00
 -0.6978330E+01  0.8503120E+01  0.0000000E+00  0.6115208E+00 -0.1600357E+01  0.1807458E-01  0.6112537E+00
 -0.7778170E+01  0.7778170E+01  0.0000000E+00  0.5955297E+00 -0.1592644E+01  0.1301002E-01  0.5953876E+00
 -0.8503120E+01  0.6978330E+01  0.0000000E+00  0.5767056E+00 -0.1584091E+01  0.7667121E-02  0.5766546E+00
 -0.9146170E+01  0.6111270E+01  0.0000000E+00  0.5543143E+00 -0.1575161E+01  0.2419111E-02  0.5543090E+00
 -0.9701130E+01  0.5185360E+01  0.0000000E+00  0.5279102E+00 -0.1566247E+01 -0.2401499E-02  0.5279047E+00
 -0.1016270E+02  0.4209520E+01  0.0000000E+00  0.4978924E+00 -0.1558013E+01 -0.6364401E-02  0.4978517E+00
 -0.1052630E+02  0.3193130E+01  0.0000000E+00  0.4652334E+00 -0.1551608E+01 -0.8926680E-02  0.4651477E+00
 -0.1078860E+02  0.2145990E+01  0.0000000E+00  0.4296449E+00 -0.1548854E+01 -0.9426848E-02  0.4295414E+00
 -0.1094700E+02  0.1078190E+01  0.0000000E+00  0.3910108E+00 -0.1551748E+01 -0.7447594E-02  0.3909399E+00
 -0.1100000E+02 -0.9616510E-06  0.0000000E+00  0.3498474E+00 -0.1562968E+01 -0.2738554E-02  0.3498367E+00
 -0.1094700E+02 -0.1078190E+01  0.0000000E+00  0.3072899E+00 -0.1586404E+01  0.4795749E-02  0.3072525E+00
 -0.1078860E+02 -0.2146000E+01  0.0000000E+00  0.2640898E+00 -0.1630038E+01  0.1563594E-01  0.2636265E+00
 -0.1052630E+02 -0.3193130E+01  0.0000000E+00  0.2213132E+00 -0.1706486E+01  0.2993774E-01  0.2192789E+00
 -0.1016270E+02 -0.4209520E+01  0.0000000E+00  0.1810084E+00 -0.1836605E+01  0.4754902E-01  0.1746514E+00
 -0.9701130E+01 -0.5185360E+01  0.0000000E+00  0.1471130E+00 -0.2051030E+01  0.6796423E-01  0.1304726E+00
 -0.9146160E+01 -0.6111270E+01  0.0000000E+00  0.1264024E+00 -0.2375020E+01  0.9104673E-01  0.8768162E-01
 -0.8503110E+01 -0.6978330E+01  0.0000000E+00  0.1255329E+00 -0.2759528E+01  0.1164815E+00  0.4680327E-01
 -0.7778170E+01 -0.7778180E+01  0.0000000E+00  0.1439921E+00 -0.3086406E+01  0.1437729E+00  0.7942498E-02
 -0.6978330E+01 -0.8503110E+01  0.0000000E+00  0.1744820E+00  0.2975773E+01  0.1720887E+00 -0.2880020E-01
 -0.6111270E+01 -0.9146170E+01  0.0000000E+00  0.2101096E+00  0.2840206E+01  0.2006390E+00 -0.6236997E-01
 -0.5185360E+01 -0.9701130E+01  0.0000000E+00  0.2466730E+00  0.2758111E+01  0.2287566E+00 -0.9229314E-01
 -0.4209510E+01 -0.1016270E+02  0.0000000E+00  0.2821992E+00  0.2706706E+01  0.2559315E+00 -0.1188928E+00
 -0.3193130E+01 -0.1052630E+02  0.0000000E+00  0.3156547E+00  0.2672402E+01  0.2815433E+00 -0.1427279E+00
 -0.2145990E+01 -0.1078860E+02  0.0000000E+00  0.3453013E+00  0.2650558E+01  0.3045023E+00 -0.1628230E+00
 -0.1078190E+01 -0.1094700E+02  0.0000000E+00  0.3701469E+00  0.2637506E+01  0.3241065E+00 -0.1787839E+00
  0.1311740E-06 -0.1100000E+02  0.0000000E+00  0.3901965E+00  0.2629573E+01  0.3401564E+00 -0.1911725E+00
  0.1078190E+01 -0.1094700E+02  0.0000000E+00  0.4058476E+00  0.2623746E+01  0.3526358E+00 -0.2008987E+00
  0.2145990E+01 -0.1078860E+02  0.0000000E+00  0.4158234E+00  0.2620459E+01  0.3606251E+00 -0.2070233E+00
  0.3193140E+01 -0.1052630E+02  0.0000000E+00  0.4194918E+00  0.2619794E+01  0.3636675E+00 -0.2090917E+00
  0.4209520E+01 -0.1016270E+02  0.0000000E+00  0.4173078E+00  0.2620822E+01  0.3619879E+00 -0.2076308E+00
  0.5185360E+01 -0.9701130E+01  0.0000000E+00  0.4103033E+00  0.2622345E+01  0.3562223E+00 -0.2036036E+00
  0.6111270E+01 -0.9146160E+01  0.0000000E+00  0.3976619E+00  0.2626065E+01  0.3459788E+00 -0.1960450E+00
  0.6978330E+01 -0.8503110E+01  0.0000000E+00  0.3790727E+00  0.2633600E+01  0.3312044E+00 -0.1843902E+00
  0.7778180E+01 -0.7778170E+01  0.0000000E+00  0.3552766E+00  0.2645679E+01  0.3124779E+00 -0.1690532E+00
  0.8503120E+01 -0.6978320E+01  0.0000000E+00  0.3276874E+00  0.2662792E+01  0.2908384E+00 -0.1509705E+00
  0.9146170E+01 -0.6111270E+01  0.0000000E+00  0.2962884E+00  0.2689881E+01  0.2665711E+00 -0.1293317E+00
  0.9701130E+01 -0.5185360E+01  0.0000000E+00  0.2614436E+00  0.2734009E+01  0.2400264E+00 -0.1036342E+00
  0.1016270E+02 -0.4209520E+01  0.0000000E+00  0.2245750E+00  0.2804434E+01  0.2119310E+00 -0.7429102E-01
  0.1052630E+02 -0.3193130E+01  0.0000000E+00  0.1881343E+00  0.2914721E+01  0.1833133E+00 -0.4231716E-01
  0.1078860E+02 -0.2145990E+01  0.0000000E+00  0.1551145E+00  0.3093945E+01  0.1549385E+00 -0.7388053E-02
  0.1094700E+02 -0.1078180E+01  0.0000000E+00  0.1309969E+00 -0.2905406E+01  0.1273600E+00  0.3065279E-01
  0.1100000E+02  0.0000000E+00 -0.2568960E-01  0.1235287E+00 -0.2527802E+01  0.1009811E+00  0.7114888E-01
  0.1094700E+02  0.1078190E+01 -0.2568960E-01  0.1368118E+00 -0.2166035E+01  0.7671121E-01  0.1132822E+00
  0.1078860E+02  0.2145990E+01 -0.2568960E-01  0.1660012E+00 -0.1909179E+01  0.5510609E-01  0.1565877E+00
  0.1052630E+02  0.3193130E+01 -0.2568960E-01  0.2040849E+00 -0.1750800E+01  0.3653794E-01  0.2007875E+00
  0.1016270E+02  0.4209520E+01 -0.2568960E-01  0.2463214E+00 -0.1656739E+01  0.2114355E-01  0.2454123E+00
  0.9701130E+01  0.5185360E+01 -0.2568960E-01  0.2898110E+00 -0.1601154E+01  0.8796602E-02  0.2896775E+00
  0.9146170E+01  0.6111270E+01 -0.2568960E-01  0.3326923E+00 -0.1570059E+01 -0.2451795E-03  0.3326922E+00
  0.8503110E+01  0.6978330E+01 -0.2568960E-01  0.3740297E+00 -0.1554701E+01 -0.6019975E-02  0.3739812E+00
  0.7778170E+01  0.7778170E+01 -0.2568960E-01  0.4134558E+00 -0.1549487E+01 -0.8809973E-02  0.4133619E+00
  0.6978330E+01  0.8503110E+01 -0.2568960E-01  0.4507332E+00 -0.1550333E+01 -0.9222971E-02  0.4506388E+00
  0.6111270E+01  0.9146170E+01 -0.2568960E-01  0.4848660E+00 -0.1555160E+01 -0.7581361E-02  0.4848067E+00
  0.5185360E+01  0.9701130E+01 -0.2568960E-01  0.5154652E+00 -0.1562556E+01 -0.4247754E-02  0.5154477E+00
  0.4209520E+01  0.1016270E+02 -0.2568960E-01  0.5427755E+00 -0.1571466E+01  0.3636736E-03  0.5427753E+00
  0.3193130E+01  0.1052630E+02 -0.2568960E-01  0.5672657E+00 -0.1580777E+01  0.5661335E-02  0.5672374E+00
  0.2145990E+01  0.1078860E+02 -0.2568960E-01  0.5880179E+00 -0.1589555E+01  0.1102978E-01  0.5879144E+00
  0.1078190E+01  0.1094700E+02 -0.2568960E-01  0.6046900E+00 -0.1597354E+01  0.1605743E-01  0.6044767E+00
 -0.4808250E-06  0.1100000E+02 -0.2568960E-01  0.6177149E+00 -0.1603997E+01  0.2050451E-01  0.6173745E+00
 -0.1078190E+01  0.1094700E+02 -0.2568960E-01  0.6278771E+00 -0.1609321E+01  0.2418265E-01  0.6274112E+00
 -0.2145990E+01  0.1078860E+02 -0.2568960E-01  0.6342785E+00 -0.1612720E+01  0.2658327E-01  0.6337212E+00
 -0.3193130E+01  0.1052630E+02 -0.2568960E-01  0.6365237E+00 -0.1613976E+01  0.2747621E-01  0.6359304E+00
 -0.4209520E+01  0.1016270E+02 -0.2568960E-01  0.6350433E+00 -0.1613200E+01  0.2692011E-01  0.6344725E+00
 -0.5185370E+01  0.9701130E+01 -0.2568960E-01  0.6307266E+00 -0.1610779E+01  0.2521133E-01  0.6302226E+00
 -0.6111270E+01  0.9146160E+01 -0.2568960E-01  0.6227111E+00 -0.1606516E+01  0.2223814E-01  0.6223139E+00
 -0.6978330E+01  0.8503120E+01 -0.2568960E-01  0.6105481E+00 -0.1600386E+01  0.1806332E-01  0.6102808E+00
 -0.7778170E+01  0.7778170E+01 -0.2568960E-01  0.5946083E+00 -0.1592681E+01  0.1301197E-01  0.5944659E+00
 -0.8503120E+01  0.6978330E+01 -0.2568960E-01  0.5757886E+00 -0.1584124E+01  0.7673868E-02  0.5757375E+00
 -0.9146170E+01  0.6111270E+01 -0.2568960E-01  0.5534062E+00 -0.1575188E+01  0.2430122E-02  0.5534008E+00
 -0.9701130E+01  0.5185360E+01 -0.2568960E-01  0.5270671E+00 -0.1566274E+01 -0.2383593E-02  0.5270618E+00
 -0.1016270E+02  0.4209520E+01 -0.2568960E-01  0.4971180E+00 -0.1558040E+01 -0.6341450E-02  0.4970776E+00
 -0.1052630E+02  0.3193130E+01 -0.2568960E-01  0.4644928E+00 -0.1551640E+01 -0.8897333E-02  0.4644075E+00
 -0.1078860E+02  0.2145990E+01 -0.2568960E-01  0.4289401E+00 -0.1548895E+01 -0.9393647E-02  0.4288372E+00
 -0.1094700E+02  0.1078190E+01 -0.2568960E-01  0.3903801E+00 -0.1551776E+01 -0.7424664E-02  0.3903095E+00
 -0.1100000E+02 -0.9616510E-06 -0.2568960E-01  0.3492933E+00 -0.1562979E+01 -0.2730702E-02  0.3492826E+00
 -0.1094700E+02 -0.1078190E+01 -0.2568960E-01  0.3067955E+00 -0.1586440E+01  0.4799175E-02  0.3067579E+00
 -0.1078860E+02 -0.2146000E+01 -0.2568960E-01  0.2636564E+00 -0.1630114E+01  0.1563032E-01  0.2631927E+00
 -0.1052630E+02 -0.3193130E+01 -0.2568960E-01  0.2209464E+00 -0.1706543E+01  0.2990068E-01  0.2189139E+00
 -0.1016270E+02 -0.4209520E+01 -0.2568960E-01  0.1807031E+00 -0.1836643E+01  0.4747549E-01  0.1743551E+00
 -0.9701130E+01 -0.5185360E+01 -0.2568960E-01  0.1468711E+00 -0.2051132E+01  0.6786571E-01  0.1302512E+00
 -0.9146160E+01 -0.6111270E+01 -0.2568960E-01  0.1262079E+00 -0.2375155E+01  0.9091847E-01  0.8753442E-01
 -0.8503110E+01 -0.6978330E+01 -0.2568960E-01  0.1253368E+00 -0.2759742E+01  0.1163096E+00  0.4670537E-01
 -0.7778170E+01 -0.7778180E+01 -0.2568960E-01  0.1437718E+00 -0.3086672E+01  0.1435550E+00  0.7892115E-02
 -0.6978330E+01 -0.8503110E+01 -0.2568960E-01  0.1742185E+00  0.2975664E+01  0.1718257E+00 -0.2877536E-01
 -0.6111270E+01 -0.9146170E+01 -0.2568960E-01  0.2097856E+00  0.2840212E+01  0.2003300E+00 -0.6227249E-01
 -0.5185360E+01 -0.9701130E+01 -0.2568960E-01  0.2463066E+00  0.2758034E+01  0.2284096E+00 -0.9217350E-01
 -0.4209510E+01 -0.1016270E+02 -0.2568960E-01  0.2817925E+00  0.2706580E+01  0.2555477E+00 -0.1187536E+00
 -0.3193130E+01 -0.1052630E+02 -0.2568960E-01  0.3151767E+00  0.2672352E+01  0.2811099E+00 -0.1425257E+00
 -0.2145990E+01 -0.1078860E+02 -0.2568960E-01  0.3447540E+00  0.2650570E+01  0.3040217E+00 -0.1625611E+00
 -0.1078190E+01 -0.1094700E+02 -0.2568960E-01  0.3695883E+00  0.2637466E+01  0.3236102E+00 -0.1785271E+00
  0.1311740E-06 -0.1100000E+02 -0.2568960E-01  0.3896321E+00  0.2629493E+01  0.3396491E+00 -0.1909231E+00
  0.1078190E+01 -0.1094700E+02 -0.2568960E-01  0.4052307E+00  0.2623711E+01  0.3520928E+00 -0.2006056E+00
  0.2145990E+01 -0.1078860E+02 -0.2568960E-01  0.4151592E+00  0.2620469E+01  0.3600511E+00 -0.2066890E+00
  0.3193140E+01 -0.1052630E+02 -0.2568960E-01  0.4188544E+00  0.2619761E+01  0.3631080E+00 -0.2087859E+00
  0.4209520E+01 -0.1016270E+02 -0.2568960E-01  0.4167030E+00  0.2620750E+01  0.3614483E+00 -0.2073560E+00
  0.5185360E+01 -0.9701130E+01 -0.2568960E-01  0.4096807E+00  0.2622311E+01  0.3556748E+00 -0.2033069E+00
  0.6111270E+01 -0.9146160E+01 -0.2568960E-01  0.3970281E+00  0.2626076E+01  0.3454296E+00 -0.1957287E+00
  0.6978330E+01 -0.8503110E+01 -0.2568960E-01  0.3784965E+00  0.2633561E+01  0.3306937E+00 -0.1841229E+00
  0.7778180E+01 -0.7778170E+01 -0.2568960E-01  0.3547635E+00  0.2645587E+01  0.3120112E+00 -0.1688378E+00
  0.8503120E+01 -0.6978320E+01 -0.2568960E-01  0.3271954E+00  0.2662743E+01  0.2903943E+00 -0.1507580E+00
  0.9146170E+01 -0.6111270E+01 -0.2568960E-01  0.2958223E+00  0.2689894E+01  0.2661534E+00 -0.1291247E+00
  0.9701130E+01 -0.5185360E+01 -0.2568960E-01  0.2610490E+00  0.2733944E+01  0.2396575E+00 -0.1034933E+00
  0.1016270E+02 -0.4209520E+01 -0.2568960E-01  0.2242497E+00  0.2804266E+01  0.2116116E+00 -0.7421902E-01
  0.1052630E+02 -0.3193130E+01 -0.2568960E-01  0.1878559E+00  0.2914605E+01  0.1830372E+00 -0.4227582E-01
  0.1078860E+02 -0.2145990E+01 -0.2568960E-01  0.1548809E+00  0.3093923E+01  0.1547049E+00 -0.7380309E-02
  0.1094700E+02 -0.1078180E+01 -0.2568960E-01  0.1307937E+00 -0.2905561E+01  0.1271673E+00  0.3058558E-01
  0.1100000E+02  0.0000000E+00 -0.1027320E+00  0.1228763E+00 -0.2528397E+01  0.1004898E+00  0.7071333E-01
  0.1094700E+02  0.1078190E+01 -0.1027320E+00  0.1361036E+00 -0.2166329E+01  0.7634728E-01  0.1126734E+00
  0.1078860E+02  0.2145990E+01 -0.1027320E+00  0.1651825E+00 -0.1909335E+01  0.5485859E-01  0.1558069E+00
  0.1052630E+02  0.3193130E+01 -0.1027320E+00  0.2030843E+00 -0.1750778E+01  0.3635450E-01  0.1998038E+00
  0.1016270E+02  0.4209520E+01 -0.1027320E+00  0.2451221E+00 -0.1656627E+01  0.2101310E-01  0.2442198E+00
  0.9701130E+01  0.5185360E+01 -0.1027320E+00  0.2884013E+00 -0.1601132E+01  0.8747629E-02  0.2882686E+00
  0.9146170E+01  0.6111270E+01 -0.1027320E+00  0.3310749E+00 -0.1570118E+01 -0.2245840E-03  0.3310748E+00
  0.8503110E+01  0.6978330E+01 -0.1027320E+00  0.3722579E+00 -0.1554714E+01 -0.5986653E-02  0.3722098E+00
  0.7778170E+01  0.7778170E+01 -0.1027320E+00  0.4115320E+00 -0.1549470E+01 -0.8775713E-02  0.4114384E+00
  0.6978330E+01  0.8503110E+01 -0.1027320E+00  0.4485931E+00 -0.1550353E+01 -0.9170172E-02  0.4484994E+00
  0.6111270E+01  0.9146170E+01 -0.1027320E+00  0.4825248E+00 -0.1555216E+01 -0.7517403E-02  0.4824662E+00
  0.5185360E+01  0.9701130E+01 -0.1027320E+00  0.5130426E+00 -0.1562622E+01 -0.4193882E-02  0.5130254E+00
  0.4209520E+01  0.1016270E+02 -0.1027320E+00  0.5402805E+00 -0.1571536E+01  0.3997181E-03  0.5402803E+00
  0.3193130E+01  0.1052630E+02 -0.1027320E+00  0.5645951E+00 -0.1580840E+01  0.5670775E-02  0.5645666E+00
  0.2145990E+01  0.1078860E+02 -0.1027320E+00  0.5851856E+00 -0.1589618E+01  0.1101356E-01  0.5850819E+00
  0.1078190E+01  0.1094700E+02 -0.1027320E+00  0.6018540E+00 -0.1597449E+01  0.1603933E-01  0.6016402E+00
 -0.4808250E-06  0.1100000E+02 -0.1027320E+00  0.6148841E+00 -0.1604115E+01  0.2048358E-01  0.6145428E+00
 -0.1078190E+01  0.1094700E+02 -0.1027320E+00  0.6249291E+00 -0.1609414E+01  0.2412744E-01  0.6244632E+00
 -0.2145990E+01  0.1078860E+02 -0.1027320E+00  0.6312257E+00 -0.1612787E+01  0.2649814E-01  0.6306693E+00
 -0.3193130E+01  0.1052630E+02 -0.1027320E+00  0.6335383E+00 -0.1614077E+01  0.2741145E-01  0.6329450E+00
 -0.4209520E+01  0.1016270E+02 -0.1027320E+00  0.6321353E+00 -0.1613330E+01  0.2687908E-01  0.6315636E+00
 -0.5185370E+01  0.9701130E+01 -0.1027320E+00  0.6277692E+00 -0.1610880E+01  0.2515678E-01  0.6272650E+00
 -0.6111270E+01  0.9146160E+01 -0.1027320E+00  0.6197129E+00 -0.1606583E+01  0.2217240E-01  0.6193161E+00
 -0.6978330E+01  0.8503120E+01 -0.1027320E+00  0.6076795E+00 -0.1600471E+01  0.1802985E-01  0.6074120E+00
 -0.7778170E+01  0.7778170E+01 -0.1027320E+00  0.5918821E+00 -0.1592785E+01  0.1301369E-01  0.5917389E+00
 -0.8503120E+01  0.6978330E+01 -0.1027320E+00  0.5730877E+00 -0.1584210E+01  0.7687224E-02  0.5730361E+00
 -0.9146170E+01  0.6111270E+01 -0.1027320E+00  0.5507382E+00 -0.1575249E+01  0.2452003E-02  0.5507327E+00
 -0.9701130E+01  0.5185360E+01 -0.1027320E+00  0.5245806E+00 -0.1566322E+01 -0.2347178E-02  0.5245754E+00
 -0.1016270E+02  0.4209520E+01 -0.1027320E+00  0.4948257E+00 -0.1558079E+01 -0.6292535E-02  0.4947857E+00
 -0.1052630E+02  0.3193130E+01 -0.1027320E+00  0.4623058E+00 -0.1551687E+01 -0.8833833E-02  0.4622214E+00
 -0.1078860E+02  0.2145990E+01 -0.1027320E+00  0.4268644E+00 -0.1548951E+01 -0.9324413E-02  0.4267626E+00
 -0.1094700E+02  0.1078190E+01 -0.1027320E+00  0.3885149E+00 -0.1551776E+01 -0.7389391E-02  0.3884446E+00
 -0.1100000E+02 -0.9616510E-06 -0.1027320E+00  0.3476497E+00 -0.1562920E+01 -0.2738178E-02  0.3476389E+00
 -0.1094700E+02 -0.1078190E+01 -0.1027320E+00  0.3053302E+00 -0.1586429E+01  0.4773047E-02  0.3052928E+00
 -0.1078860E+02 -0.2146000E+01 -0.1027320E+00  0.2623681E+00 -0.1630187E+01  0.1557311E-01  0.2619055E+00
 -0.1052630E+02 -0.3193130E+01 -0.1027320E+00  0.2198479E+00 -0.1706543E+01  0.2975196E-01  0.2178255E+00
 -0.1016270E+02 -0.4209520E+01 -0.1027320E+00  0.1797837E+00 -0.1836578E+01  0.4722272E-01  0.1734710E+00
 -0.9701130E+01 -0.5185360E+01 -0.1027320E+00  0.1461290E+00 -0.2051219E+01  0.6753406E-01  0.1295871E+00
 -0.9146160E+01 -0.6111270E+01 -0.1027320E+00  0.1255932E+00 -0.2375443E+01  0.9050059E-01  0.8708205E-01
 -0.8503110E+01 -0.6978330E+01 -0.1027320E+00  0.1247192E+00 -0.2760388E+01  0.1157665E+00  0.4640044E-01
 -0.7778170E+01 -0.7778180E+01 -0.1027320E+00  0.1430875E+00 -0.3087524E+01  0.1428784E+00  0.7732805E-02
 -0.6978330E+01 -0.8503110E+01 -0.1027320E+00  0.1734128E+00  0.2975220E+01  0.1710183E+00 -0.2871826E-01
 -0.6111270E+01 -0.9146170E+01 -0.1027320E+00  0.2088140E+00  0.2840072E+01  0.1993936E+00 -0.6201209E-01
 -0.5185360E+01 -0.9701130E+01 -0.1027320E+00  0.2452119E+00  0.2757699E+01  0.2273638E+00 -0.9184001E-01
 -0.4209510E+01 -0.1016270E+02 -0.1027320E+00  0.2805772E+00  0.2706139E+01  0.2543934E+00 -0.1183536E+00
 -0.3193130E+01 -0.1052630E+02 -0.1027320E+00  0.3137603E+00  0.2672121E+01  0.2798138E+00 -0.1419500E+00
 -0.2145990E+01 -0.1078860E+02 -0.1027320E+00  0.3431483E+00  0.2650510E+01  0.3025959E+00 -0.1618223E+00
 -0.1078190E+01 -0.1094700E+02 -0.1027320E+00  0.3679431E+00  0.2637284E+01  0.3221373E+00 -0.1777911E+00
  0.1311740E-06 -0.1100000E+02 -0.1027320E+00  0.3879608E+00  0.2629215E+01  0.3381395E+00 -0.1901980E+00
  0.1078190E+01 -0.1094700E+02 -0.1027320E+00  0.4034164E+00  0.2623553E+01  0.3504847E+00 -0.1997630E+00
  0.2145990E+01 -0.1078860E+02 -0.1027320E+00  0.4132203E+00  0.2620427E+01  0.3583609E+00 -0.2057387E+00
  0.3193140E+01 -0.1052630E+02 -0.1027320E+00  0.4169821E+00  0.2619612E+01  0.3614540E+00 -0.2079064E+00
  0.4209520E+01 -0.1016270E+02 -0.1027320E+00  0.4149165E+00  0.2620502E+01  0.3598473E+00 -0.2065564E+00
  0.5185360E+01 -0.9701130E+01 -0.1027320E+00  0.4078522E+00  0.2622157E+01  0.3540562E+00 -0.2024540E+00
  0.6111270E+01 -0.9146160E+01 -0.1027320E+00  0.3951755E+00  0.2626030E+01  0.3438088E+00 -0.1948312E+00
  0.6978330E+01 -0.8503110E+01 -0.1027320E+00  0.3768001E+00  0.2633384E+01  0.3291792E+00 -0.1833560E+00
  0.7778180E+01 -0.7778170E+01 -0.1027320E+00  0.3532413E+00  0.2645266E+01  0.3106183E+00 -0.1682131E+00
  0.8503120E+01 -0.6978320E+01 -0.1027320E+00  0.3257416E+00  0.2662522E+01  0.2890708E+00 -0.1501521E+00
  0.9146170E+01 -0.6111270E+01 -0.1027320E+00  0.2944473E+00  0.2689815E+01  0.2649061E+00 -0.1285456E+00
  0.9701130E+01 -0.5185360E+01 -0.1027320E+00  0.2598709E+00  0.2733652E+01  0.2385458E+00 -0.1030959E+00
  0.1016270E+02 -0.4209520E+01 -0.1027320E+00  0.2232698E+00  0.2803685E+01  0.2106440E+00 -0.7401698E-01
  0.1052630E+02 -0.3193130E+01 -0.1027320E+00  0.1870120E+00  0.2914128E+01  0.1821948E+00 -0.4217283E-01
  0.1078860E+02 -0.2145990E+01 -0.1027320E+00  0.1541614E+00  0.3093694E+01  0.1539846E+00 -0.7381334E-02
  0.1094700E+02 -0.1078180E+01 -0.1027320E+00  0.1301561E+00 -0.2906062E+01  0.1265626E+00  0.3037313E-01
  0.1100000E+02  0.0000000E+00 -0.2310450E+00  0.1217747E+00 -0.2529438E+01  0.9966186E-01  0.6997566E-01
  0.1094700E+02  0.1078190E+01 -0.2310450E+00  0.1349140E+00 -0.2166753E+01  0.7572735E-01  0.1116564E+00
  0.1078860E+02  0.2145990E+01 -0.2310450E+00  0.1638122E+00 -0.1909463E+01  0.5442338E-01  0.1545074E+00
  0.1052630E+02  0.3193130E+01 -0.2310450E+00  0.2014287E+00 -0.1750641E+01  0.3603099E-01  0.1981799E+00
  0.1016270E+02  0.4209520E+01 -0.2310450E+00  0.2431478E+00 -0.1656354E+01  0.2077774E-01  0.2422584E+00
  0.9701130E+01  0.5185360E+01 -0.2310450E+00  0.2860878E+00 -0.1601017E+01  0.8644540E-02  0.2859571E+00
  0.9146170E+01  0.6111270E+01 -0.2310450E+00  0.3284341E+00 -0.1570119E+01 -0.2224880E-03  0.3284340E+00
  0.8503110E+01  0.6978330E+01 -0.2310450E+00  0.3693609E+00 -0.1554670E+01 -0.5956270E-02  0.3693129E+00
  0.7778170E+01  0.7778170E+01 -0.2310450E+00  0.4083891E+00 -0.1549384E+01 -0.8744099E-02  0.4082955E+00
  0.6978330E+01  0.8503110E+01 -0.2310450E+00  0.4451033E+00 -0.1550327E+01 -0.9110342E-02  0.4450101E+00
  0.6111270E+01  0.9146170E+01 -0.2310450E+00  0.4787246E+00 -0.1555250E+01 -0.7442298E-02  0.4786668E+00
  0.5185360E+01  0.9701130E+01 -0.2310450E+00  0.5090976E+00 -0.1562676E+01 -0.4134217E-02  0.5090808E+00
  0.4209520E+01  0.1016270E+02 -0.2310450E+00  0.5362183E+00 -0.1571598E+01  0.4296838E-03  0.5362181E+00
  0.3193130E+01  0.1052630E+02 -0.2310450E+00  0.5602494E+00 -0.1580896E+01  0.5657972E-02  0.5602208E+00
  0.2145990E+01  0.1078860E+02 -0.2310450E+00  0.5806012E+00 -0.1589676E+01  0.1096082E-01  0.5804977E+00
  0.1078190E+01  0.1094700E+02 -0.2310450E+00  0.5972440E+00 -0.1597554E+01  0.1597911E-01  0.5970302E+00
 -0.4808250E-06  0.1100000E+02 -0.2310450E+00  0.6102857E+00 -0.1604259E+01  0.2041774E-01  0.6099440E+00
 -0.1078190E+01  0.1094700E+02 -0.2310450E+00  0.6201413E+00 -0.1609517E+01  0.2400636E-01  0.6196764E+00
 -0.2145990E+01  0.1078860E+02 -0.2310450E+00  0.6262908E+00 -0.1612856E+01  0.2633404E-01  0.6257369E+00
 -0.3193130E+01  0.1052630E+02 -0.2310450E+00  0.6286882E+00 -0.1614192E+01  0.2727363E-01  0.6280963E+00
 -0.4209520E+01  0.1016270E+02 -0.2310450E+00  0.6274120E+00 -0.1613492E+01  0.2677959E-01  0.6268402E+00
 -0.5185370E+01  0.9701130E+01 -0.2310450E+00  0.6229643E+00 -0.1610996E+01  0.2503596E-01  0.6224610E+00
 -0.6111270E+01  0.9146160E+01 -0.2310450E+00  0.6148655E+00 -0.1606649E+01  0.2203962E-01  0.6144704E+00
 -0.6978330E+01  0.8503120E+01 -0.2310450E+00  0.6030174E+00 -0.1600558E+01  0.1794430E-01  0.6027504E+00
 -0.7778170E+01  0.7778170E+01 -0.2310450E+00  0.5874485E+00 -0.1592903E+01  0.1298540E-01  0.5873049E+00
 -0.8503120E+01  0.6978330E+01 -0.2310450E+00  0.5686933E+00 -0.1584300E+01  0.7679338E-02  0.5686415E+00
 -0.9146170E+01  0.6111270E+01 -0.2310450E+00  0.5464172E+00 -0.1575298E+01  0.2459880E-02  0.5464117E+00
 -0.9701130E+01  0.5185360E+01 -0.2310450E+00  0.5205299E+00 -0.1566348E+01 -0.2315391E-02  0.5205248E+00
 -0.1016270E+02  0.4209520E+01 -0.2310450E+00  0.4910887E+00 -0.1558090E+01 -0.6239941E-02  0.4910490E+00
 -0.1052630E+02  0.3193130E+01 -0.2310450E+00  0.4587391E+00 -0.1551708E+01 -0.8755796E-02  0.4586555E+00
 -0.1078860E+02  0.2145990E+01 -0.2310450E+00  0.4234908E+00 -0.1548971E+01 -0.9242157E-02  0.4233899E+00
 -0.1094700E+02  0.1078190E+01 -0.2310450E+00  0.3854666E+00 -0.1551712E+01 -0.7356083E-02  0.3853964E+00
 -0.1100000E+02 -0.9616510E-06 -0.2310450E+00  0.3449589E+00 -0.1562755E+01 -0.2773985E-02  0.3449477E+00
 -0.1094700E+02 -0.1078190E+01 -0.2310450E+00  0.3029276E+00 -0.1586333E+01  0.4706320E-02  0.3028910E+00
 -0.1078860E+02 -0.2146000E+01 -0.2310450E+00  0.2602531E+00 -0.1630188E+01  0.1544769E-01  0.2597943E+00
 -0.1052630E+02 -0.3193130E+01 -0.2310450E+00  0.2180356E+00 -0.1706441E+01  0.2948467E-01  0.2160328E+00
 -0.1016270E+02 -0.4209520E+01 -0.2310450E+00  0.1782580E+00 -0.1836370E+01  0.4678615E-01  0.1720086E+00
 -0.9701130E+01 -0.5185360E+01 -0.2310450E+00  0.1448856E+00 -0.2051282E+01  0.6696761E-01  0.1284803E+00
 -0.9146160E+01 -0.6111270E+01 -0.2310450E+00  0.1245420E+00 -0.2375944E+01  0.8978643E-01  0.8630823E-01
 -0.8503110E+01 -0.6978330E+01 -0.2310450E+00  0.1236750E+00 -0.2761593E+01  0.1148526E+00  0.4587360E-01
 -0.7778170E+01 -0.7778180E+01 -0.2310450E+00  0.1419408E+00 -0.3089146E+01  0.1417456E+00  0.7440869E-02
 -0.6978330E+01 -0.8503110E+01 -0.2310450E+00  0.1720739E+00  0.2974247E+01  0.1696701E+00 -0.2866162E-01
 -0.6111270E+01 -0.9146170E+01 -0.2310450E+00  0.2072173E+00  0.2839527E+01  0.1978353E+00 -0.6164572E-01
 -0.5185360E+01 -0.9701130E+01 -0.2310450E+00  0.2434101E+00  0.2756930E+01  0.2256230E+00 -0.9133878E-01
 -0.4209510E+01 -0.1016270E+02 -0.2310450E+00  0.2785805E+00  0.2705208E+01  0.2524734E+00 -0.1177465E+00
 -0.3193130E+01 -0.1052630E+02 -0.2310450E+00  0.3114383E+00  0.2671543E+01  0.2776615E+00 -0.1410598E+00
 -0.2145990E+01 -0.1078860E+02 -0.2310450E+00  0.3405398E+00  0.2650172E+01  0.3002415E+00 -0.1606934E+00
 -0.1078190E+01 -0.1094700E+02 -0.2310450E+00  0.3652500E+00  0.2636798E+01  0.3196938E+00 -0.1766450E+00
  0.1311740E-06 -0.1100000E+02 -0.2310450E+00  0.3852260E+00  0.2628574E+01  0.3356347E+00 -0.1890724E+00
  0.1078190E+01 -0.1094700E+02 -0.2310450E+00  0.4004484E+00  0.2623113E+01  0.3478189E+00 -0.1984463E+00
  0.2145990E+01 -0.1078860E+02 -0.2310450E+00  0.4100772E+00  0.2620144E+01  0.3555773E+00 -0.2042745E+00
  0.3193140E+01 -0.1052630E+02 -0.2310450E+00  0.4139206E+00  0.2619191E+01  0.3587133E+00 -0.2065309E+00
  0.4209520E+01 -0.1016270E+02 -0.2310450E+00  0.4119932E+00  0.2619914E+01  0.3571914E+00 -0.2053112E+00
  0.5185360E+01 -0.9701130E+01 -0.2310450E+00  0.4048612E+00  0.2621726E+01  0.3513731E+00 -0.2011208E+00
  0.6111270E+01 -0.9146160E+01 -0.2310450E+00  0.3921700E+00  0.2625734E+01  0.3411367E+00 -0.1934504E+00
  0.6978330E+01 -0.8503110E+01 -0.2310450E+00  0.3740236E+00  0.2632908E+01  0.3266670E+00 -0.1821602E+00
  0.7778180E+01 -0.7778170E+01 -0.2310450E+00  0.3507470E+00  0.2644548E+01  0.3083051E+00 -0.1672466E+00
  0.8503120E+01 -0.6978320E+01 -0.2310450E+00  0.3233589E+00  0.2661963E+01  0.2868730E+00 -0.1492140E+00
  0.9146170E+01 -0.6111270E+01 -0.2310450E+00  0.2922086E+00  0.2689425E+01  0.2628422E+00 -0.1276708E+00
  0.9701130E+01 -0.5185360E+01 -0.2310450E+00  0.2579341E+00  0.2732957E+01  0.2366968E+00 -0.1024921E+00
  0.1016270E+02 -0.4209520E+01 -0.2310450E+00  0.2216522E+00  0.2802506E+01  0.2090311E+00 -0.7372734E-01
  0.1052630E+02 -0.3193130E+01 -0.2310450E+00  0.1856117E+00  0.2913105E+01  0.1807876E+00 -0.4204199E-01
  0.1078860E+02 -0.2145990E+01 -0.2310450E+00  0.1529581E+00  0.3092982E+01  0.1527774E+00 -0.7432526E-02
  0.1094700E+02 -0.1078180E+01 -0.2310450E+00  0.1290804E+00 -0.2907070E+01  0.1255469E+00  0.2999558E-01
  0.1100000E+02  0.0000000E+00 -0.4105000E+00  0.1202984E+00 -0.2530787E+01  0.9854676E-01  0.6899448E-01
  0.1094700E+02  0.1078190E+01 -0.4105000E+00  0.1332975E+00 -0.2167499E+01  0.7490221E-01  0.1102628E+00
  0.1078860E+02  0.2145990E+01 -0.4105000E+00  0.1619301E+00 -0.1909791E+01  0.5384804E-01  0.1527146E+00
  0.1052630E+02  0.3193130E+01 -0.4105000E+00  0.1991511E+00 -0.1750620E+01  0.3561941E-01  0.1959399E+00
  0.1016270E+02  0.4209520E+01 -0.4105000E+00  0.2404139E+00 -0.1656172E+01  0.2050061E-01  0.2395382E+00
  0.9701130E+01  0.5185360E+01 -0.4105000E+00  0.2828737E+00 -0.1600982E+01  0.8537468E-02  0.2827448E+00
  0.9146170E+01  0.6111270E+01 -0.4105000E+00  0.3247707E+00 -0.1570201E+01 -0.1933709E-03  0.3247706E+00
  0.8503110E+01  0.6978330E+01 -0.4105000E+00  0.3653314E+00 -0.1554687E+01 -0.5885056E-02  0.3652839E+00
  0.7778170E+01  0.7778170E+01 -0.4105000E+00  0.4039904E+00 -0.1549334E+01 -0.8669917E-02  0.4038974E+00
  0.6978330E+01  0.8503110E+01 -0.4105000E+00  0.4402368E+00 -0.1550323E+01 -0.9012368E-02  0.4401445E+00
  0.6111270E+01  0.9146170E+01 -0.4105000E+00  0.4734482E+00 -0.1555311E+01 -0.7331256E-02  0.4733914E+00
  0.5185360E+01  0.9701130E+01 -0.4105000E+00  0.5036006E+00 -0.1562758E+01 -0.4048167E-02  0.5035843E+00
  0.4209520E+01  0.1016270E+02 -0.4105000E+00  0.5305223E+00 -0.1571670E+01  0.4634916E-03  0.5305221E+00
  0.3193130E+01  0.1052630E+02 -0.4105000E+00  0.5541921E+00 -0.1580945E+01  0.5624364E-02  0.5541636E+00
  0.2145990E+01  0.1078860E+02 -0.4105000E+00  0.5742375E+00 -0.1589731E+01  0.1087264E-01  0.5741346E+00
  0.1078190E+01  0.1094700E+02 -0.4105000E+00  0.5908193E+00 -0.1597661E+01  0.1587029E-01  0.5906061E+00
 -0.4808250E-06  0.1100000E+02 -0.4105000E+00  0.6038358E+00 -0.1604396E+01  0.2028490E-01  0.6034949E+00
 -0.1078190E+01  0.1094700E+02 -0.4105000E+00  0.6134681E+00 -0.1609605E+01  0.2380213E-01  0.6130062E+00
 -0.2145990E+01  0.1078860E+02 -0.4105000E+00  0.6194419E+00 -0.1612909E+01  0.2607840E-01  0.6188927E+00
 -0.3193130E+01  0.1052630E+02 -0.4105000E+00  0.6219292E+00 -0.1614294E+01  0.2704390E-01  0.6213409E+00
 -0.4209520E+01  0.1016270E+02 -0.4105000E+00  0.6207878E+00 -0.1613644E+01  0.2659123E-01  0.6202180E+00
 -0.5185370E+01  0.9701130E+01 -0.4105000E+00  0.6162680E+00 -0.1611102E+01  0.2483264E-01  0.6157675E+00
 -0.6111270E+01  0.9146160E+01 -0.4105000E+00  0.6081381E+00 -0.1606702E+01  0.2183078E-01  0.6077461E+00
 -0.6978330E+01  0.8503120E+01 -0.4105000E+00  0.5965192E+00 -0.1600633E+01  0.1779568E-01  0.5962538E+00
 -0.7778170E+01  0.7778170E+01 -0.4105000E+00  0.5812315E+00 -0.1593021E+01  0.1291641E-01  0.5810879E+00