 VARIABLES="X" "Y" "Z" "abs(eta) (m)" "angle(phi) (rad)" "PRE1" "PRE2"
ZONE N=   3200 ,E =    3136 ,F=FEPOINT,ET=QUADRILATERAL
  0.1010000E+02  0.0000000E+00  0.0000000E+00  0.5345230E-08  0.2729956E+01  0.4898728E-08 -0.2138679E-08
  0.1005140E+02  0.9899730E+00  0.0000000E+00  0.3788433E-05  0.1575649E+01  0.1838214E-07 -0.3788388E-05
  0.9905930E+01  0.1970410E+01  0.0000000E+00  0.3481912E-04  0.1570915E+01  0.4139403E-08 -0.3481912E-04
  0.9665100E+01  0.2931880E+01  0.0000000E+00  0.3272284E-05  0.1576080E+01  0.1728911E-07 -0.3272239E-05
  0.9331180E+01  0.3865100E+01  0.0000000E+00  0.4203578E-05  0.1571452E+01  0.2754871E-08 -0.4203577E-05
  0.8907400E+01  0.4761110E+01  0.0000000E+00  0.7206650E-05  0.1569278E+01 -0.1094044E-07 -0.7206641E-05
  0.8397840E+01  0.5611260E+01  0.0000000E+00  0.1940922E-04 -0.1571191E+01  0.7665851E-08  0.1940922E-04
  0.7807410E+01  0.6407370E+01  0.0000000E+00  0.1543691E-04  0.1570370E+01 -0.6585112E-08 -0.1543691E-04
  0.7141780E+01  0.7141780E+01  0.0000000E+00  0.6758991E-08  0.2382244E+01  0.4902191E-08 -0.4653223E-08
  0.6407370E+01  0.7807410E+01  0.0000000E+00  0.1542790E-04 -0.1571858E+01  0.1637959E-07  0.1542790E-04
  0.5611260E+01  0.8397840E+01  0.0000000E+00  0.1941758E-04  0.1570907E+01  0.2138792E-08 -0.1941758E-04
  0.4761110E+01  0.8907410E+01  0.0000000E+00  0.7199262E-05 -0.1573676E+01  0.2073513E-07  0.7199232E-05
  0.3865100E+01  0.9331180E+01  0.0000000E+00  0.4197242E-05 -0.1572474E+01  0.7041444E-08  0.4197236E-05
  0.2931870E+01  0.9665100E+01  0.0000000E+00  0.3266865E-05 -0.1568499E+01 -0.7505065E-08  0.3266856E-05
  0.1970410E+01  0.9905930E+01  0.0000000E+00  0.3481427E-04 -0.1570959E+01  0.5662623E-08  0.3481427E-04
  0.9899730E+00  0.1005140E+02  0.0000000E+00  0.3783937E-05 -0.1568528E+01 -0.8583377E-08  0.3783927E-05
 -0.4414850E-06  0.1010000E+02  0.0000000E+00  0.5364091E-08  0.2721274E+01  0.4897196E-08 -0.2188824E-08
 -0.9899740E+00  0.1005140E+02  0.0000000E+00  0.3788525E-05  0.1575651E+01  0.1839192E-07 -0.3788480E-05
 -0.1970410E+01  0.9905930E+01  0.0000000E+00  0.3481908E-04  0.1570916E+01  0.4159977E-08 -0.3481908E-04
 -0.2931880E+01  0.9665100E+01  0.0000000E+00  0.3272271E-05  0.1576082E+01  0.1729439E-07 -0.3272226E-05
 -0.3865100E+01  0.9331180E+01  0.0000000E+00  0.4203535E-05  0.1571454E+01  0.2763437E-08 -0.4203534E-05
 -0.4761110E+01  0.8907400E+01  0.0000000E+00  0.7206588E-05  0.1569277E+01 -0.1094637E-07 -0.7206580E-05
 -0.5611260E+01  0.8397840E+01  0.0000000E+00  0.1940925E-04 -0.1571192E+01  0.7675986E-08  0.1940924E-04
 -0.6407370E+01  0.7807410E+01  0.0000000E+00  0.1543686E-04  0.1570370E+01 -0.6579951E-08 -0.1543686E-04
 -0.7141780E+01  0.7141780E+01  0.0000000E+00  0.6739288E-08  0.2385388E+01  0.4902464E-08 -0.4624268E-08
 -0.7807410E+01  0.6407370E+01  0.0000000E+00  0.1542794E-04 -0.1571859E+01  0.1639310E-07  0.1542794E-04
 -0.8397840E+01  0.5611260E+01  0.0000000E+00  0.1941748E-04  0.1570906E+01  0.2124372E-08 -0.1941748E-04
 -0.8907410E+01  0.4761110E+01  0.0000000E+00  0.7199247E-05 -0.1573676E+01  0.2073192E-07  0.7199217E-05
 -0.9331180E+01  0.3865100E+01  0.0000000E+00  0.4197257E-05 -0.1572473E+01  0.7036782E-08  0.4197251E-05
 -0.9665100E+01  0.2931880E+01  0.0000000E+00  0.3266783E-05 -0.1568503E+01 -0.7491783E-08  0.3266774E-05
 -0.9905930E+01  0.1970410E+01  0.0000000E+00  0.3481421E-04 -0.1570958E+01  0.5639337E-08  0.3481421E-04
 -0.1005140E+02  0.9899730E+00  0.0000000E+00  0.3783944E-05 -0.1568523E+01 -0.8603632E-08  0.3783934E-05
 -0.1010000E+02 -0.8829700E-06  0.0000000E+00  0.5346529E-08  0.2729741E+01  0.4899459E-08 -0.2140251E-08
 -0.1005140E+02 -0.9899740E+00  0.0000000E+00  0.3788503E-05  0.1575653E+01  0.1839801E-07 -0.3788458E-05
 -0.9905930E+01 -0.1970410E+01  0.0000000E+00  0.3481900E-04  0.1570915E+01  0.4147070E-08 -0.3481900E-04
 -0.9665100E+01 -0.2931880E+01  0.0000000E+00  0.3272227E-05  0.1576080E+01  0.1729031E-07 -0.3272182E-05
 -0.9331180E+01 -0.3865100E+01  0.0000000E+00  0.4203492E-05  0.1571448E+01  0.2741100E-08 -0.4203491E-05
 -0.8907400E+01 -0.4761110E+01  0.0000000E+00  0.7206546E-05  0.1569278E+01 -0.1094188E-07 -0.7206538E-05
 -0.8397840E+01 -0.5611260E+01  0.0000000E+00  0.1940927E-04 -0.1571191E+01  0.7659162E-08  0.1940927E-04
 -0.7807400E+01 -0.6407370E+01  0.0000000E+00  0.1543719E-04  0.1570369E+01 -0.6604869E-08 -0.1543719E-04
 -0.7141780E+01 -0.7141780E+01  0.0000000E+00  0.6709496E-08  0.2386834E+01  0.4887445E-08 -0.4596761E-08
 -0.6407370E+01 -0.7807410E+01  0.0000000E+00  0.1542791E-04 -0.1571858E+01  0.1638389E-07  0.1542790E-04
 -0.5611260E+01 -0.8397850E+01  0.0000000E+00  0.1941719E-04  0.1570905E+01  0.2106410E-08 -0.1941719E-04
 -0.4761110E+01 -0.8907410E+01  0.0000000E+00  0.7199270E-05 -0.1573673E+01  0.2071276E-07  0.7199240E-05
 -0.3865100E+01 -0.9331190E+01  0.0000000E+00  0.4197129E-05 -0.1572468E+01  0.7014557E-08  0.4197123E-05
 -0.2931870E+01 -0.9665100E+01  0.0000000E+00  0.3266918E-05 -0.1568498E+01 -0.7509189E-08  0.3266909E-05
 -0.1970410E+01 -0.9905930E+01  0.0000000E+00  0.3481421E-04 -0.1570958E+01  0.5643182E-08  0.3481421E-04
 -0.9899710E+00 -0.1005140E+02  0.0000000E+00  0.3783910E-05 -0.1568517E+01 -0.8626300E-08  0.3783900E-05
  0.1204410E-06 -0.1010000E+02  0.0000000E+00  0.5356246E-08  0.2723813E+01  0.4895566E-08 -0.2173201E-08
  0.9899760E+00 -0.1005140E+02  0.0000000E+00  0.3788516E-05  0.1575649E+01  0.1838331E-07 -0.3788471E-05
  0.1970410E+01 -0.9905930E+01  0.0000000E+00  0.3481906E-04  0.1570915E+01  0.4136492E-08 -0.3481906E-04
  0.2931880E+01 -0.9665100E+01  0.0000000E+00  0.3272202E-05  0.1576073E+01  0.1726514E-07 -0.3272157E-05
  0.3865100E+01 -0.9331180E+01  0.0000000E+00  0.4203456E-05  0.1571446E+01  0.2732356E-08 -0.4203455E-05
  0.4761110E+01 -0.8907410E+01  0.0000000E+00  0.7206425E-05  0.1569277E+01 -0.1095108E-07 -0.7206417E-05
  0.5611260E+01 -0.8397840E+01  0.0000000E+00  0.1940930E-04 -0.1571191E+01  0.7654739E-08  0.1940930E-04
  0.6407370E+01 -0.7807410E+01  0.0000000E+00  0.1543682E-04  0.1570369E+01 -0.6588747E-08 -0.1543681E-04
  0.7141780E+01 -0.7141780E+01  0.0000000E+00  0.6709642E-08  0.2387079E+01  0.4888677E-08 -0.4595663E-08
  0.7807410E+01 -0.6407370E+01  0.0000000E+00  0.1542793E-04 -0.1571857E+01  0.1635885E-07  0.1542792E-04
  0.8397840E+01 -0.5611260E+01  0.0000000E+00  0.1941742E-04  0.1570906E+01  0.2124801E-08 -0.1941742E-04
  0.8907410E+01 -0.4761110E+01  0.0000000E+00  0.7199281E-05 -0.1573674E+01  0.2071736E-07  0.7199251E-05
  0.9331180E+01 -0.3865100E+01  0.0000000E+00  0.4197273E-05 -0.1572470E+01  0.7025183E-08  0.4197267E-05
  0.9665100E+01 -0.2931870E+01  0.0000000E+00  0.3266930E-05 -0.1568496E+01 -0.7516636E-08  0.3266921E-05
  0.9905930E+01 -0.1970410E+01  0.0000000E+00  0.3481417E-04 -0.1570958E+01  0.5643645E-08  0.3481417E-04
  0.1005140E+02 -0.9899690E+00  0.0000000E+00  0.3783795E-05 -0.1568520E+01 -0.8613514E-08  0.3783785E-05
  0.1010000E+02  0.0000000E+00 -0.2568960E-01  0.5336233E-08  0.2724754E+01  0.4879310E-08 -0.2160489E-08
  0.1005140E+02  0.9899730E+00 -0.2568960E-01  0.3737081E-05  0.1575712E+01  0.1837191E-07 -0.3737036E-05
  0.9905930E+01  0.1970410E+01 -0.2568960E-01  0.3470526E-04  0.1570915E+01  0.4130884E-08 -0.3470526E-04
  0.9665100E+01  0.2931880E+01 -0.2568960E-01  0.3214574E-05  0.1576165E+01  0.1725675E-07 -0.3214528E-05
  0.9331180E+01  0.3865100E+01 -0.2568960E-01  0.4201366E-05  0.1571451E+01  0.2752266E-08 -0.4201365E-05
  0.8907400E+01  0.4761110E+01 -0.2568960E-01  0.7246620E-05  0.1569290E+01 -0.1091438E-07 -0.7246611E-05
  0.8397840E+01  0.5611260E+01 -0.2568960E-01  0.1931275E-04 -0.1571192E+01  0.7640563E-08  0.1931275E-04
  0.7807410E+01  0.6407370E+01 -0.2568960E-01  0.1548998E-04  0.1570372E+01 -0.6576957E-08 -0.1548998E-04
  0.7141780E+01  0.7141780E+01 -0.2568960E-01  0.6734170E-08  0.2385366E+01  0.4898642E-08 -0.4620860E-08
  0.6407370E+01  0.7807410E+01 -0.2568960E-01  0.1548098E-04 -0.1571853E+01  0.1635575E-07  0.1548097E-04
  0.5611260E+01  0.8397840E+01 -0.2568960E-01  0.1932101E-04  0.1570906E+01  0.2118294E-08 -0.1932101E-04
  0.4761110E+01  0.8907410E+01 -0.2568960E-01  0.7239230E-05 -0.1573657E+01  0.2070713E-07  0.7239200E-05
  0.3865100E+01  0.9331180E+01 -0.2568960E-01  0.4195070E-05 -0.1572477E+01  0.7049997E-08  0.4195064E-05
  0.2931870E+01  0.9665100E+01 -0.2568960E-01  0.3209251E-05 -0.1568461E+01 -0.7493488E-08  0.3209243E-05
  0.1970410E+01  0.9905930E+01 -0.2568960E-01  0.3470036E-04 -0.1570959E+01  0.5659667E-08  0.3470036E-04
  0.9899730E+00  0.1005140E+02 -0.2568960E-01  0.3732572E-05 -0.1568501E+01 -0.8566126E-08  0.3732562E-05
 -0.4414850E-06  0.1010000E+02 -0.2568960E-01  0.5363191E-08  0.2720150E+01  0.4893909E-08 -0.2193962E-08
 -0.9899740E+00  0.1005140E+02 -0.2568960E-01  0.3737114E-05  0.1575713E+01  0.1837388E-07 -0.3737068E-05
 -0.1970410E+01  0.9905930E+01 -0.2568960E-01  0.3470515E-04  0.1570915E+01  0.4135893E-08 -0.3470515E-04
 -0.2931880E+01  0.9665100E+01 -0.2568960E-01  0.3214574E-05  0.1576169E+01  0.1726984E-07 -0.3214527E-05
 -0.3865100E+01  0.9331180E+01 -0.2568960E-01  0.4201363E-05  0.1571451E+01  0.2752191E-08 -0.4201362E-05
 -0.4761110E+01  0.8907400E+01 -0.2568960E-01  0.7246555E-05  0.1569291E+01 -0.1090510E-07 -0.7246546E-05
 -0.5611260E+01  0.8397840E+01 -0.2568960E-01  0.1931277E-04 -0.1571192E+01  0.7647384E-08  0.1931277E-04
 -0.6407370E+01  0.7807410E+01 -0.2568960E-01  0.1548993E-04  0.1570373E+01 -0.6563009E-08 -0.1548993E-04
 -0.7141780E+01  0.7141780E+01 -0.2568960E-01  0.6704662E-08  0.2387321E+01  0.4886158E-08 -0.4591073E-08
 -0.7807410E+01  0.6407370E+01 -0.2568960E-01  0.1548099E-04 -0.1571852E+01  0.1634202E-07  0.1548098E-04
 -0.8397840E+01  0.5611260E+01 -0.2568960E-01  0.1932091E-04  0.1570907E+01  0.2129479E-08 -0.1932091E-04
 -0.8907410E+01  0.4761110E+01 -0.2568960E-01  0.7239239E-05 -0.1573657E+01  0.2071109E-07  0.7239209E-05
 -0.9331180E+01  0.3865100E+01 -0.2568960E-01  0.4195092E-05 -0.1572472E+01  0.7028052E-08  0.4195086E-05
 -0.9665100E+01  0.2931880E+01 -0.2568960E-01  0.3209129E-05 -0.1568464E+01 -0.7483868E-08  0.3209120E-05
 -0.9905930E+01  0.1970410E+01 -0.2568960E-01  0.3470029E-04 -0.1570959E+01  0.5638885E-08  0.3470029E-04
 -0.1005140E+02  0.9899730E+00 -0.2568960E-01  0.3732591E-05 -0.1568498E+01 -0.8579574E-08  0.3732582E-05
 -0.1010000E+02 -0.8829700E-06 -0.2568960E-01  0.5356482E-08  0.2727207E+01  0.4903130E-08 -0.2156668E-08
 -0.1005140E+02 -0.9899740E+00 -0.2568960E-01  0.3737100E-05  0.1575714E+01  0.1837597E-07 -0.3737055E-05
 -0.9905930E+01 -0.1970410E+01 -0.2568960E-01  0.3470515E-04  0.1570916E+01  0.4138603E-08 -0.3470515E-04
 -0.9665100E+01 -0.2931880E+01 -0.2568960E-01  0.3214523E-05  0.1576168E+01  0.1726811E-07 -0.3214477E-05
 -0.9331180E+01 -0.3865100E+01 -0.2568960E-01  0.4201308E-05  0.1571450E+01  0.2746513E-08 -0.4201307E-05
 -0.8907400E+01 -0.4761110E+01 -0.2568960E-01  0.7246518E-05  0.1569288E+01 -0.1092818E-07 -0.7246510E-05
 -0.8397840E+01 -0.5611260E+01 -0.2568960E-01  0.1931279E-04 -0.1571192E+01  0.7647021E-08  0.1931279E-04
 -0.7807400E+01 -0.6407370E+01 -0.2568960E-01  0.1549030E-04  0.1570369E+01 -0.6616165E-08 -0.1549030E-04
 -0.7141780E+01 -0.7141780E+01 -0.2568960E-01  0.6689678E-08  0.2390738E+01  0.4890866E-08 -0.4564123E-08
 -0.6407370E+01 -0.7807410E+01 -0.2568960E-01  0.1548097E-04 -0.1571852E+01  0.1633904E-07  0.1548096E-04
 -0.5611260E+01 -0.8397850E+01 -0.2568960E-01  0.1932068E-04  0.1570905E+01  0.2097311E-08 -0.1932068E-04
 -0.4761110E+01 -0.8907410E+01 -0.2568960E-01  0.7239239E-05 -0.1573657E+01  0.2070663E-07  0.7239209E-05
 -0.3865100E+01 -0.9331190E+01 -0.2568960E-01  0.4194954E-05 -0.1572469E+01  0.7017878E-08  0.4194948E-05
 -0.2931870E+01 -0.9665100E+01 -0.2568960E-01  0.3209289E-05 -0.1568456E+01 -0.7511693E-08  0.3209281E-05
 -0.1970410E+01 -0.9905930E+01 -0.2568960E-01  0.3470028E-04 -0.1570959E+01  0.5640175E-08  0.3470028E-04
 -0.9899710E+00 -0.1005140E+02 -0.2568960E-01  0.3732527E-05 -0.1568493E+01 -0.8598293E-08  0.3732517E-05
  0.1204410E-06 -0.1010000E+02 -0.2568960E-01  0.5331287E-08  0.2722988E+01  0.4870969E-08 -0.2167092E-08
  0.9899760E+00 -0.1005140E+02 -0.2568960E-01  0.3737092E-05  0.1575711E+01  0.1836458E-07 -0.3737047E-05
  0.1970410E+01 -0.9905930E+01 -0.2568960E-01  0.3470519E-04  0.1570915E+01  0.4120278E-08 -0.3470519E-04
  0.2931880E+01 -0.9665100E+01 -0.2568960E-01  0.3214499E-05  0.1576162E+01  0.1724867E-07 -0.3214453E-05
  0.3865100E+01 -0.9331180E+01 -0.2568960E-01  0.4201274E-05  0.1571446E+01  0.2727823E-08 -0.4201273E-05
  0.4761110E+01 -0.8907410E+01 -0.2568960E-01  0.7246384E-05  0.1569287E+01 -0.1093885E-07 -0.7246376E-05
  0.5611260E+01 -0.8397840E+01 -0.2568960E-01  0.1931281E-04 -0.1571192E+01  0.7636024E-08  0.1931281E-04
  0.6407370E+01 -0.7807410E+01 -0.2568960E-01  0.1548987E-04  0.1570371E+01 -0.6584213E-08 -0.1548987E-04
  0.7141780E+01 -0.7141780E+01 -0.2568960E-01  0.6682262E-08  0.2390039E+01  0.4882255E-08 -0.4562479E-08
  0.7807410E+01 -0.6407370E+01 -0.2568960E-01  0.1548097E-04 -0.1571852E+01  0.1634972E-07  0.1548096E-04
  0.8397840E+01 -0.5611260E+01 -0.2568960E-01  0.1932088E-04  0.1570905E+01  0.2102475E-08 -0.1932088E-04
  0.8907410E+01 -0.4761110E+01 -0.2568960E-01  0.7239262E-05 -0.1573654E+01  0.2068646E-07  0.7239232E-05
  0.9331180E+01 -0.3865100E+01 -0.2568960E-01  0.4195105E-05 -0.1572474E+01  0.7035885E-08  0.4195099E-05
  0.9665100E+01 -0.2931870E+01 -0.2568960E-01  0.3209313E-05 -0.1568454E+01 -0.7516353E-08  0.3209304E-05
  0.9905930E+01 -0.1970410E+01 -0.2568960E-01  0.3470027E-04 -0.1570959E+01  0.5641631E-08  0.3470027E-04
  0.1005140E+02 -0.9899690E+00 -0.2568960E-01  0.3732458E-05 -0.1568490E+01 -0.8607088E-08  0.3732448E-05
  0.1010000E+02  0.0000000E+00 -0.1027320E+00  0.5313871E-08  0.2725826E+01  0.4861165E-08 -0.2146229E-08
  0.1005140E+02  0.9899730E+00 -0.1027320E+00  0.3659715E-05  0.1575786E+01  0.1826159E-07 -0.3659669E-05
  0.9905930E+01  0.1970410E+01 -0.1027320E+00  0.3447499E-04  0.1570916E+01  0.4124896E-08 -0.3447499E-04
  0.9665100E+01  0.2931880E+01 -0.1027320E+00  0.3131507E-05  0.1576280E+01  0.1717295E-07 -0.3131460E-05
  0.9331180E+01  0.3865100E+01 -0.1027320E+00  0.4193409E-05  0.1571446E+01  0.2725008E-08 -0.4193409E-05
  0.8907400E+01  0.4761110E+01 -0.1027320E+00  0.7283587E-05  0.1569304E+01 -0.1087071E-07 -0.7283579E-05
  0.8397840E+01  0.5611260E+01 -0.1027320E+00  0.1912022E-04 -0.1571195E+01  0.7617190E-08  0.1912021E-04
  0.7807410E+01  0.6407370E+01 -0.1027320E+00  0.1552017E-04  0.1570375E+01 -0.6537467E-08 -0.1552017E-04
  0.7141780E+01  0.7141780E+01 -0.1027320E+00  0.6694185E-08  0.2382467E+01  0.4856217E-08 -0.4607523E-08
  0.6407370E+01  0.7807410E+01 -0.1027320E+00  0.1551126E-04 -0.1571845E+01  0.1627138E-07  0.1551125E-04
  0.5611260E+01  0.8397840E+01 -0.1027320E+00  0.1912844E-04  0.1570907E+01  0.2122952E-08 -0.1912844E-04
  0.4761110E+01  0.8907410E+01 -0.1027320E+00  0.7276310E-05 -0.1573627E+01  0.2059747E-07  0.7276281E-05
  0.3865100E+01  0.9331180E+01 -0.1027320E+00  0.4187139E-05 -0.1572471E+01  0.7012892E-08  0.4187133E-05
  0.2931870E+01  0.9665100E+01 -0.1027320E+00  0.3126214E-05 -0.1568412E+01 -0.7453784E-08  0.3126205E-05
  0.1970410E+01  0.9905930E+01 -0.1027320E+00  0.3447014E-04 -0.1570959E+01  0.5615406E-08  0.3447014E-04
  0.9899730E+00  0.1005140E+02 -0.1027320E+00  0.3655222E-05 -0.1568463E+01 -0.8527422E-08  0.3655212E-05
 -0.4414850E-06  0.1010000E+02 -0.1027320E+00  0.5341967E-08  0.2721834E+01  0.4878216E-08 -0.2177066E-08
 -0.9899740E+00  0.1005140E+02 -0.1027320E+00  0.3659776E-05  0.1575789E+01  0.1827081E-07 -0.3659730E-05
 -0.1970410E+01  0.9905930E+01 -0.1027320E+00  0.3447489E-04  0.1570916E+01  0.4141879E-08 -0.3447489E-04
 -0.2931880E+01  0.9665100E+01 -0.1027320E+00  0.3131500E-05  0.1576286E+01  0.1719005E-07 -0.3131453E-05
 -0.3865100E+01  0.9331180E+01 -0.1027320E+00  0.4193367E-05  0.1571446E+01  0.2723465E-08 -0.4193366E-05
 -0.4761110E+01  0.8907400E+01 -0.1027320E+00  0.7283536E-05  0.1569307E+01 -0.1084605E-07 -0.7283527E-05
 -0.5611260E+01  0.8397840E+01 -0.1027320E+00  0.1912020E-04 -0.1571195E+01  0.7629322E-08  0.1912020E-04
 -0.6407370E+01  0.7807410E+01 -0.1027320E+00  0.1552012E-04  0.1570374E+01 -0.6553451E-08 -0.1552011E-04
 -0.7141780E+01  0.7141780E+01 -0.1027320E+00  0.6680287E-08  0.2384935E+01  0.4857468E-08 -0.4585983E-08
 -0.7807410E+01  0.6407370E+01 -0.1027320E+00  0.1551125E-04 -0.1571846E+01  0.1628923E-07  0.1551124E-04
 -0.8397840E+01  0.5611260E+01 -0.1027320E+00  0.1912834E-04  0.1570907E+01  0.2125359E-08 -0.1912834E-04
 -0.8907410E+01  0.4761110E+01 -0.1027320E+00  0.7276333E-05 -0.1573628E+01  0.2060231E-07  0.7276304E-05
 -0.9331180E+01  0.3865100E+01 -0.1027320E+00  0.4187147E-05 -0.1572469E+01  0.7004548E-08  0.4187141E-05
 -0.9665100E+01  0.2931880E+01 -0.1027320E+00  0.3126065E-05 -0.1568412E+01 -0.7453165E-08  0.3126057E-05
 -0.9905930E+01  0.1970410E+01 -0.1027320E+00  0.3447012E-04 -0.1570959E+01  0.5606718E-08  0.3447012E-04
 -0.1005140E+02  0.9899730E+00 -0.1027320E+00  0.3655223E-05 -0.1568461E+01 -0.8535571E-08  0.3655213E-05
 -0.1010000E+02 -0.8829700E-06 -0.1027320E+00  0.5309723E-08  0.2728966E+01  0.4864082E-08 -0.2129286E-08
 -0.1005140E+02 -0.9899740E+00 -0.1027320E+00  0.3659704E-05  0.1575791E+01  0.1827980E-07 -0.3659658E-05
 -0.9905930E+01 -0.1970410E+01 -0.1027320E+00  0.3447487E-04  0.1570916E+01  0.4128374E-08 -0.3447487E-04
 -0.9665100E+01 -0.2931880E+01 -0.1027320E+00  0.3131446E-05  0.1576279E+01  0.1716825E-07 -0.3131398E-05
 -0.9331180E+01 -0.3865100E+01 -0.1027320E+00  0.4193336E-05  0.1571447E+01  0.2727389E-08 -0.4193335E-05
 -0.8907400E+01 -0.4761110E+01 -0.1027320E+00  0.7283489E-05  0.1569304E+01 -0.1087120E-07 -0.7283481E-05
 -0.8397840E+01 -0.5611260E+01 -0.1027320E+00  0.1912023E-04 -0.1571194E+01  0.7597593E-08  0.1912023E-04
 -0.7807400E+01 -0.6407370E+01 -0.1027320E+00  0.1552051E-04  0.1570372E+01 -0.6580071E-08 -0.1552051E-04
 -0.7141780E+01 -0.7141780E+01 -0.1027320E+00  0.6663026E-08  0.2385802E+01  0.4848879E-08 -0.4569933E-08
 -0.6407370E+01 -0.7807410E+01 -0.1027320E+00  0.1551126E-04 -0.1571846E+01  0.1627496E-07  0.1551125E-04
 -0.5611260E+01 -0.8397850E+01 -0.1027320E+00  0.1912801E-04  0.1570906E+01  0.2098362E-08 -0.1912801E-04
 -0.4761110E+01 -0.8907410E+01 -0.1027320E+00  0.7276329E-05 -0.1573625E+01  0.2058588E-07  0.7276300E-05
 -0.3865100E+01 -0.9331190E+01 -0.1027320E+00  0.4187010E-05 -0.1572462E+01  0.6974266E-08  0.4187004E-05
 -0.2931870E+01 -0.9665100E+01 -0.1027320E+00  0.3126260E-05 -0.1568408E+01 -0.7465834E-08  0.3126251E-05
 -0.1970410E+01 -0.9905930E+01 -0.1027320E+00  0.3447013E-04 -0.1570959E+01  0.5596148E-08  0.3447013E-04
 -0.9899710E+00 -0.1005140E+02 -0.1027320E+00  0.3655191E-05 -0.1568455E+01 -0.8556967E-08  0.3655181E-05
  0.1204410E-06 -0.1010000E+02 -0.1027320E+00  0.5302425E-08  0.2726047E+01  0.4851169E-08 -0.2140530E-08
  0.9899760E+00 -0.1005140E+02 -0.1027320E+00  0.3659817E-05  0.1575785E+01  0.1825817E-07 -0.3659771E-05
  0.1970410E+01 -0.9905930E+01 -0.1027320E+00  0.3447488E-04  0.1570916E+01  0.4123685E-08 -0.3447488E-04
  0.2931880E+01 -0.9665100E+01 -0.1027320E+00  0.3131435E-05  0.1576271E+01  0.1714333E-07 -0.3131388E-05
  0.3865100E+01 -0.9331180E+01 -0.1027320E+00  0.4193315E-05  0.1571446E+01  0.2725965E-08 -0.4193314E-05
  0.4761110E+01 -0.8907410E+01 -0.1027320E+00  0.7283435E-05  0.1569304E+01 -0.1087276E-07 -0.7283426E-05
  0.5611260E+01 -0.8397840E+01 -0.1027320E+00  0.1912025E-04 -0.1571194E+01  0.7596749E-08  0.1912025E-04
  0.6407370E+01 -0.7807410E+01 -0.1027320E+00  0.1552007E-04  0.1570374E+01 -0.6556148E-08 -0.1552007E-04
  0.7141780E+01 -0.7141780E+01 -0.1027320E+00  0.6671942E-08  0.2387719E+01  0.4864133E-08 -0.4566729E-08
  0.7807410E+01 -0.6407370E+01 -0.1027320E+00  0.1551127E-04 -0.1571845E+01  0.1627114E-07  0.1551126E-04
  0.8397840E+01 -0.5611260E+01 -0.1027320E+00  0.1912829E-04  0.1570906E+01  0.2098473E-08 -0.1912829E-04
  0.8907410E+01 -0.4761110E+01 -0.1027320E+00  0.7276346E-05 -0.1573624E+01  0.2057688E-07  0.7276316E-05
  0.9331180E+01 -0.3865100E+01 -0.1027320E+00  0.4187154E-05 -0.1572464E+01  0.6984808E-08  0.4187148E-05
  0.9665100E+01 -0.2931870E+01 -0.1027320E+00  0.3126252E-05 -0.1568409E+01 -0.7462166E-08  0.3126243E-05
  0.9905930E+01 -0.1970410E+01 -0.1027320E+00  0.3447006E-04 -0.1570959E+01  0.5607987E-08  0.3447006E-04
  0.1005140E+02 -0.9899690E+00 -0.1027320E+00  0.3655130E-05 -0.1568457E+01 -0.8552377E-08  0.3655120E-05
  0.1010000E+02  0.0000000E+00 -0.2310450E+00  0.5309715E-08  0.2721469E+01  0.4847974E-08 -0.2165692E-08
  0.1005140E+02  0.9899730E+00 -0.2310450E+00  0.3593763E-05  0.1575839E+01  0.1812073E-07 -0.3593718E-05
  0.9905930E+01  0.1970410E+01 -0.2310450E+00  0.3413828E-04  0.1570916E+01  0.4070762E-08 -0.3413828E-04
  0.9665100E+01  0.2931880E+01 -0.2310450E+00  0.3067686E-05  0.1576351E+01  0.1704003E-07 -0.3067638E-05
  0.9331180E+01  0.3865100E+01 -0.2310450E+00  0.4179718E-05  0.1571443E+01  0.2701009E-08 -0.4179717E-05
  0.8907400E+01  0.4761110E+01 -0.2310450E+00  0.7273618E-05  0.1569313E+01 -0.1078850E-07 -0.7273610E-05
  0.8397840E+01  0.5611260E+01 -0.2310450E+00  0.1884588E-04 -0.1571197E+01  0.7551776E-08  0.1884588E-04
  0.7807410E+01  0.6407370E+01 -0.2310450E+00  0.1544841E-04  0.1570377E+01 -0.6478952E-08 -0.1544841E-04
  0.7141780E+01  0.7141780E+01 -0.2310450E+00  0.6655890E-08  0.2382129E+01  0.4826887E-08 -0.4582797E-08
  0.6407370E+01  0.7807410E+01 -0.2310450E+00  0.1543946E-04 -0.1571843E+01  0.1616569E-07  0.1543945E-04
  0.5611260E+01  0.8397840E+01 -0.2310450E+00  0.1885411E-04  0.1570908E+01  0.2101311E-08 -0.1885411E-04
  0.4761110E+01  0.8907410E+01 -0.2310450E+00  0.7266394E-05 -0.1573609E+01  0.2044080E-07  0.7266366E-05
  0.3865100E+01  0.9331180E+01 -0.2310450E+00  0.4173492E-05 -0.1572462E+01  0.6952360E-08  0.4173486E-05
  0.2931870E+01  0.9665100E+01 -0.2310450E+00  0.3062394E-05 -0.1568377E+01 -0.7407368E-08  0.3062385E-05
  0.1970410E+01  0.9905930E+01 -0.2310450E+00  0.3413347E-04 -0.1570959E+01  0.5568821E-08  0.3413347E-04
  0.9899730E+00  0.1005140E+02 -0.2310450E+00  0.3589295E-05 -0.1568441E+01 -0.8452896E-08  0.3589285E-05
 -0.4414850E-06  0.1010000E+02 -0.2310450E+00  0.5294914E-08  0.2724269E+01  0.4840489E-08 -0.2146108E-08
 -0.9899740E+00  0.1005140E+02 -0.2310450E+00  0.3593777E-05  0.1575847E+01  0.1814914E-07 -0.3593731E-05
 -0.1970410E+01  0.9905930E+01 -0.2310450E+00  0.3413822E-04  0.1570916E+01  0.4090942E-08 -0.3413822E-04
 -0.2931880E+01  0.9665100E+01 -0.2310450E+00  0.3067674E-05  0.1576358E+01  0.1706088E-07 -0.3067626E-05
 -0.3865100E+01  0.9331180E+01 -0.2310450E+00  0.4179697E-05  0.1571443E+01  0.2702174E-08 -0.4179696E-05
 -0.4761110E+01  0.8907400E+01 -0.2310450E+00  0.7273607E-05  0.1569315E+01 -0.1077652E-07 -0.7273598E-05
 -0.5611260E+01  0.8397840E+01 -0.2310450E+00  0.1884591E-04 -0.1571197E+01  0.7551764E-08  0.1884591E-04
 -0.6407370E+01  0.7807410E+01 -0.2310450E+00  0.1544837E-04  0.1570375E+01 -0.6506296E-08 -0.1544837E-04
 -0.7141780E+01  0.7141780E+01 -0.2310450E+00  0.6648889E-08  0.2383687E+01  0.4828936E-08 -0.4570460E-08
 -0.7807410E+01  0.6407370E+01 -0.2310450E+00  0.1543953E-04 -0.1571843E+01  0.1616280E-07  0.1543953E-04
 -0.8397840E+01  0.5611260E+01 -0.2310450E+00  0.1885401E-04  0.1570908E+01  0.2102649E-08 -0.1885401E-04
 -0.8907410E+01  0.4761110E+01 -0.2310450E+00  0.7266386E-05 -0.1573609E+01  0.2043643E-07  0.7266357E-05
 -0.9331180E+01  0.3865100E+01 -0.2310450E+00  0.4173535E-05 -0.1572458E+01  0.6934420E-08  0.4173529E-05
 -0.9665100E+01  0.2931880E+01 -0.2310450E+00  0.3062268E-05 -0.1568382E+01 -0.7392412E-08  0.3062259E-05
 -0.9905930E+01  0.1970410E+01 -0.2310450E+00  0.3413344E-04 -0.1570959E+01  0.5563904E-08  0.3413344E-04
 -0.1005140E+02  0.9899730E+00 -0.2310450E+00  0.3589306E-05 -0.1568437E+01 -0.8466543E-08  0.3589296E-05
 -0.1010000E+02 -0.8829700E-06 -0.2310450E+00  0.5287540E-08  0.2725429E+01  0.4836230E-08 -0.2137511E-08
 -0.1005140E+02 -0.9899740E+00 -0.2310450E+00  0.3593748E-05  0.1575840E+01  0.1812681E-07 -0.3593702E-05
 -0.9905930E+01 -0.1970410E+01 -0.2310450E+00  0.3413820E-04  0.1570916E+01  0.4087915E-08 -0.3413820E-04
 -0.9665100E+01 -0.2931880E+01 -0.2310450E+00  0.3067629E-05  0.1576348E+01  0.1703136E-07 -0.3067581E-05
 -0.9331180E+01 -0.3865100E+01 -0.2310450E+00  0.4179644E-05  0.1571447E+01  0.2717709E-08 -0.4179643E-05
 -0.8907400E+01 -0.4761110E+01 -0.2310450E+00  0.7273551E-05  0.1569312E+01 -0.1079477E-07 -0.7273542E-05
 -0.8397840E+01 -0.5611260E+01 -0.2310450E+00  0.1884592E-04 -0.1571196E+01  0.7541359E-08  0.1884592E-04
 -0.7807400E+01 -0.6407370E+01 -0.2310450E+00  0.1544877E-04  0.1570374E+01 -0.6529136E-08 -0.1544876E-04
 -0.7141780E+01 -0.7141780E+01 -0.2310450E+00  0.6609126E-08  0.2383653E+01  0.4799905E-08 -0.4543286E-08
 -0.6407370E+01 -0.7807410E+01 -0.2310450E+00  0.1543952E-04 -0.1571843E+01  0.1615263E-07  0.1543951E-04
 -0.5611260E+01 -0.8397850E+01 -0.2310450E+00  0.1885364E-04  0.1570907E+01  0.2087153E-08 -0.1885364E-04
 -0.4761110E+01 -0.8907410E+01 -0.2310450E+00  0.7266397E-05 -0.1573609E+01  0.2043679E-07  0.7266369E-05
 -0.3865100E+01 -0.9331190E+01 -0.2310450E+00  0.4173433E-05 -0.1572452E+01  0.6910508E-08  0.4173427E-05
 -0.2931870E+01 -0.9665100E+01 -0.2310450E+00  0.3062430E-05 -0.1568372E+01 -0.7424938E-08  0.3062421E-05
 -0.1970410E+01 -0.9905930E+01 -0.2310450E+00  0.3413348E-04 -0.1570959E+01  0.5556573E-08  0.3413348E-04
 -0.9899710E+00 -0.1005140E+02 -0.2310450E+00  0.3589217E-05 -0.1568435E+01 -0.8476715E-08  0.3589207E-05
  0.1204410E-06 -0.1010000E+02 -0.2310450E+00  0.5259748E-08  0.2729112E+01  0.4818609E-08 -0.2108544E-08
  0.9899760E+00 -0.1005140E+02 -0.2310450E+00  0.3593816E-05  0.1575835E+01  0.1810908E-07 -0.3593770E-05
  0.1970410E+01 -0.9905930E+01 -0.2310450E+00  0.3413819E-04  0.1570915E+01  0.4066392E-08 -0.3413819E-04
  0.2931880E+01 -0.9665100E+01 -0.2310450E+00  0.3067600E-05  0.1576353E+01  0.1704568E-07 -0.3067552E-05
  0.3865100E+01 -0.9331180E+01 -0.2310450E+00  0.4179623E-05  0.1571444E+01  0.2707498E-08 -0.4179622E-05
  0.4761110E+01 -0.8907410E+01 -0.2310450E+00  0.7273444E-05  0.1569312E+01 -0.1079419E-07 -0.7273436E-05
  0.5611260E+01 -0.8397840E+01 -0.2310450E+00  0.1884596E-04 -0.1571196E+01  0.7535100E-08  0.1884596E-04
  0.6407370E+01 -0.7807410E+01 -0.2310450E+00  0.1544830E-04  0.1570375E+01 -0.6514408E-08 -0.1544830E-04
  0.7141780E+01 -0.7141780E+01 -0.2310450E+00  0.6609637E-08  0.2386070E+01  0.4811244E-08 -0.4532023E-08
  0.7807410E+01 -0.6407370E+01 -0.2310450E+00  0.1543952E-04 -0.1571843E+01  0.1615873E-07  0.1543951E-04
  0.8397840E+01 -0.5611260E+01 -0.2310450E+00  0.1885397E-04  0.1570907E+01  0.2090724E-08 -0.1885397E-04
  0.8907410E+01 -0.4761110E+01 -0.2310450E+00  0.7266404E-05 -0.1573608E+01  0.2042987E-07  0.7266376E-05
  0.9331180E+01 -0.3865100E+01 -0.2310450E+00  0.4173544E-05 -0.1572456E+01  0.6928189E-08  0.4173538E-05
  0.9665100E+01 -0.2931870E+01 -0.2310450E+00  0.3062429E-05 -0.1568374E+01 -0.7418778E-08  0.3062420E-05
  0.9905930E+01 -0.1970410E+01 -0.2310450E+00  0.3413342E-04 -0.1570959E+01  0.5563608E-08  0.3413342E-04
  0.1005140E+02 -0.9899690E+00 -0.2310450E+00  0.3589133E-05 -0.1568436E+01 -0.8472838E-08  0.3589123E-05
  0.1010000E+02  0.0000000E+00 -0.4105000E+00  0.5228835E-08  0.2725922E+01  0.4783578E-08 -0.2111420E-08
  0.1005140E+02  0.9899730E+00 -0.4105000E+00  0.3527002E-05  0.1575876E+01  0.1791750E-07 -0.3526957E-05
  0.9905930E+01  0.1970410E+01 -0.4105000E+00  0.3372869E-04  0.1570916E+01  0.4047966E-08 -0.3372869E-04
  0.9665100E+01  0.2931880E+01 -0.4105000E+00  0.3009451E-05  0.1576397E+01  0.1685569E-07 -0.3009404E-05
  0.9331180E+01  0.3865100E+01 -0.4105000E+00  0.4157816E-05  0.1571442E+01  0.2685756E-08 -0.4157816E-05
  0.8907400E+01  0.4761110E+01 -0.4105000E+00  0.7224981E-05  0.1569323E+01 -0.1064567E-07 -0.7224974E-05
  0.8397840E+01  0.5611260E+01 -0.4105000E+00  0.1853968E-04 -0.1571198E+01  0.7445008E-08  0.1853968E-04
  0.7807410E+01  0.6407370E+01 -0.4105000E+00  0.1528884E-04  0.1570376E+01 -0.6427858E-08 -0.1528883E-04
  0.7141780E+01  0.7141780E+01 -0.4105000E+00  0.6623963E-08  0.2378040E+01  0.4785043E-08 -0.4580420E-08
  0.6407370E+01  0.7807410E+01 -0.4105000E+00  0.1528001E-04 -0.1571842E+01  0.1598061E-07  0.1528000E-04
  0.5611260E+01  0.8397840E+01 -0.4105000E+00  0.1854786E-04  0.1570908E+01  0.2067625E-08 -0.1854786E-04
  0.4761110E+01  0.8907410E+01 -0.4105000E+00  0.7217840E-05 -0.1573598E+01  0.2022056E-07  0.7217811E-05
  0.3865100E+01  0.9331180E+01 -0.4105000E+00  0.4151645E-05 -0.1572452E+01  0.6874556E-08  0.4151639E-05
  0.2931870E+01  0.9665100E+01 -0.4105000E+00  0.3004281E-05 -0.1568362E+01 -0.7311858E-08  0.3004272E-05
  0.1970410E+01  0.9905930E+01 -0.4105000E+00  0.3372395E-04 -0.1570959E+01  0.5493777E-08  0.3372395E-04
  0.9899730E+00  0.1005140E+02 -0.4105000E+00  0.3522583E-05 -0.1568423E+01 -0.8361867E-08  0.3522573E-05
 -0.4414850E-06  0.1010000E+02 -0.4105000E+00  0.5222332E-08  0.2727326E+01  0.4780584E-08 -0.2102087E-08
 -0.9899740E+00  0.1005140E+02 -0.4105000E+00  0.3527120E-05  0.1575881E+01  0.1793248E-07 -0.3527075E-05
 -0.1970410E+01  0.9905930E+01 -0.4105000E+00  0.3372866E-04  0.1570917E+01  0.4066299E-08 -0.3372866E-04
 -0.2931880E+01  0.9665100E+01 -0.4105000E+00  0.3009426E-05  0.1576395E+01  0.1684777E-07 -0.3009379E-05
 -0.3865100E+01  0.9331180E+01 -0.4105000E+00  0.4157804E-05  0.1571442E+01  0.2685080E-08 -0.4157803E-05
 -0.4761110E+01  0.8907400E+01 -0.4105000E+00  0.7224926E-05  0.1569322E+01 -0.1065573E-07 -0.7224919E-05
 -0.5611260E+01  0.8397840E+01 -0.4105000E+00  0.1853970E-04 -0.1571199E+01  0.7464398E-08  0.1853970E-04
 -0.6407370E+01  0.7807410E+01 -0.4105000E+00  0.1528883E-04  0.1570377E+01 -0.6408449E-08 -0.1528883E-04
 -0.7141780E+01  0.7141780E+01 -0.4105000E+00  0.6611724E-08  0.2379701E+01  0.4783790E-08 -0.4564016E-08