 VARIABLES="X" "Y" "Z" "abs(eta) (m)" "angle(phi) (rad)" "PRE1" "PRE2"
ZONE N=   3200 ,E =    3136 ,F=FEPOINT,ET=QUADRILATERAL
  0.1010000E+02  0.0000000E+00  0.0000000E+00  0.6337401E-01 -0.2638685E+01  0.5552733E-01  0.3054472E-01
  0.1005140E+02  0.9899730E+00  0.0000000E+00  0.5904507E-01 -0.3000802E+01  0.5846083E-01  0.8285571E-02
  0.9905930E+01  0.1970410E+01  0.0000000E+00  0.6355433E-01  0.2925340E+01  0.6207404E-01 -0.1363693E-01
  0.9665100E+01  0.2931880E+01  0.0000000E+00  0.7480385E-01  0.2660582E+01  0.6631570E-01 -0.3460988E-01
  0.9331180E+01  0.3865100E+01  0.0000000E+00  0.8946847E-01  0.2485923E+01  0.7091626E-01 -0.5454807E-01
  0.8907400E+01  0.4761110E+01  0.0000000E+00  0.1052016E+00  0.2375872E+01  0.7583805E-01 -0.7291064E-01
  0.8397840E+01  0.5611260E+01  0.0000000E+00  0.1212485E+00  0.2302042E+01  0.8096946E-01 -0.9025051E-01
  0.7807410E+01  0.6407370E+01  0.0000000E+00  0.1364022E+00  0.2253682E+01  0.8607446E-01 -0.1058147E+00
  0.7141780E+01  0.7141780E+01  0.0000000E+00  0.1504688E+00  0.2219679E+01  0.9092779E-01 -0.1198875E+00
  0.6407370E+01  0.7807410E+01  0.0000000E+00  0.1625641E+00  0.2197834E+01  0.9538428E-01 -0.1316393E+00
  0.5611260E+01  0.8397840E+01  0.0000000E+00  0.1733002E+00  0.2181914E+01  0.9943678E-01 -0.1419341E+00
  0.4761110E+01  0.8907410E+01  0.0000000E+00  0.1818413E+00  0.2171617E+01  0.1027985E+00 -0.1499958E+00
  0.3865100E+01  0.9331180E+01  0.0000000E+00  0.1885882E+00  0.2163944E+01  0.1054159E+00 -0.1563746E+00
  0.2931870E+01  0.9665100E+01  0.0000000E+00  0.1926049E+00  0.2160478E+01  0.1071069E+00 -0.1600774E+00
  0.1970410E+01  0.9905930E+01  0.0000000E+00  0.1947929E+00  0.2158386E+01  0.1079847E+00 -0.1621221E+00
  0.9899730E+00  0.1005140E+02  0.0000000E+00  0.1944380E+00  0.2158830E+01  0.1078598E+00 -0.1617788E+00
 -0.4414850E-06  0.1010000E+02  0.0000000E+00  0.1922211E+00  0.2160442E+01  0.1068877E+00 -0.1597623E+00
 -0.9899740E+00  0.1005140E+02  0.0000000E+00  0.1872092E+00  0.2165812E+01  0.1049349E+00 -0.1550353E+00
 -0.1970410E+01  0.9905930E+01  0.0000000E+00  0.1803567E+00  0.2173112E+01  0.1021815E+00 -0.1486185E+00
 -0.2931880E+01  0.9665100E+01  0.0000000E+00  0.1711858E+00  0.2184860E+01  0.9863620E-01 -0.1399124E+00
 -0.3865100E+01  0.9331180E+01  0.0000000E+00  0.1605164E+00  0.2200892E+01  0.9457987E-01 -0.1296926E+00
 -0.4761110E+01  0.8907400E+01  0.0000000E+00  0.1476509E+00  0.2226233E+01  0.8999396E-01 -0.1170550E+00
 -0.5611260E+01  0.8397840E+01  0.0000000E+00  0.1334607E+00  0.2261606E+01  0.8503600E-01 -0.1028622E+00
 -0.6407370E+01  0.7807410E+01  0.0000000E+00  0.1179658E+00  0.2314993E+01  0.7990776E-01 -0.8677948E-01
 -0.7141780E+01  0.7141780E+01  0.0000000E+00  0.1021949E+00  0.2392892E+01  0.7486536E-01 -0.6956282E-01
 -0.7807410E+01  0.6407370E+01  0.0000000E+00  0.8637087E-01  0.2515835E+01  0.7000528E-01 -0.5058843E-01
 -0.8397840E+01  0.5611260E+01  0.0000000E+00  0.7214082E-01  0.2705544E+01  0.6539044E-01 -0.3046947E-01
 -0.8907410E+01  0.4761110E+01  0.0000000E+00  0.6197987E-01  0.2992553E+01  0.6129276E-01 -0.9203329E-02
 -0.9331180E+01  0.3865100E+01  0.0000000E+00  0.5915549E-01 -0.2927806E+01  0.5780880E-01  0.1255051E-01
 -0.9665100E+01  0.2931880E+01  0.0000000E+00  0.6527561E-01 -0.2575151E+01  0.5508059E-01  0.3502905E-01
 -0.9905930E+01  0.1970410E+01  0.0000000E+00  0.7858675E-01 -0.2311848E+01  0.5305108E-01  0.5797809E-01
 -0.1005140E+02  0.9899730E+00  0.0000000E+00  0.9623087E-01 -0.2140481E+01  0.5190370E-01  0.8103324E-01
 -0.1010000E+02 -0.8829700E-06  0.0000000E+00  0.1158664E+00 -0.2031588E+01  0.5152083E-01  0.1037816E+00
 -0.1005140E+02 -0.9899740E+00  0.0000000E+00  0.1363496E+00 -0.1962100E+01  0.5200290E-01  0.1260433E+00
 -0.9905930E+01 -0.1970410E+01  0.0000000E+00  0.1572464E+00 -0.1916018E+01  0.5321304E-01  0.1479689E+00
 -0.9665100E+01 -0.2931880E+01  0.0000000E+00  0.1777166E+00 -0.1886281E+01  0.5514132E-01  0.1689456E+00
 -0.9331180E+01 -0.3865100E+01  0.0000000E+00  0.1974560E+00 -0.1866467E+01  0.5753503E-01  0.1888878E+00
 -0.8907400E+01 -0.4761110E+01  0.0000000E+00  0.2158761E+00 -0.1854341E+01  0.6039354E-01  0.2072561E+00
 -0.8397840E+01 -0.5611260E+01  0.0000000E+00  0.2334298E+00 -0.1846704E+01  0.6359112E-01  0.2246011E+00
 -0.7807400E+01 -0.6407370E+01  0.0000000E+00  0.2493249E+00 -0.1842611E+01  0.6693868E-01  0.2401711E+00
 -0.7141780E+01 -0.7141780E+01  0.0000000E+00  0.2637640E+00 -0.1840224E+01  0.7020864E-01  0.2542483E+00
 -0.6407370E+01 -0.7807410E+01  0.0000000E+00  0.2759215E+00 -0.1839697E+01  0.7330448E-01  0.2660059E+00
 -0.5611260E+01 -0.8397850E+01  0.0000000E+00  0.2866157E+00 -0.1839847E+01  0.7618726E-01  0.2763043E+00
 -0.4761110E+01 -0.8907410E+01  0.0000000E+00  0.2950367E+00 -0.1840511E+01  0.7861447E-01  0.2843702E+00
 -0.3865100E+01 -0.9331190E+01  0.0000000E+00  0.3016928E+00 -0.1840942E+01  0.8051342E-01  0.2907510E+00
 -0.2931870E+01 -0.9665100E+01  0.0000000E+00  0.3055951E+00 -0.1841617E+01  0.8175359E-01  0.2944567E+00
 -0.1970410E+01 -0.9905930E+01  0.0000000E+00  0.3077395E+00 -0.1841873E+01  0.8240300E-01  0.2965018E+00
 -0.9899710E+00 -0.1005140E+02  0.0000000E+00  0.3073843E+00 -0.1841877E+01  0.8230928E-01  0.2961592E+00
  0.1204410E-06 -0.1010000E+02  0.0000000E+00  0.3052476E+00 -0.1841388E+01  0.8159308E-01  0.2941405E+00
  0.9899760E+00 -0.1005140E+02  0.0000000E+00  0.3003104E+00 -0.1841022E+01  0.8016752E-01  0.2894123E+00
  0.1970410E+01 -0.9905930E+01  0.0000000E+00  0.2935880E+00 -0.1840278E+01  0.7816256E-01  0.2829920E+00
  0.2931880E+01 -0.9665100E+01  0.0000000E+00  0.2845125E+00 -0.1839777E+01  0.7560897E-01  0.2742821E+00
  0.3865100E+01 -0.9331180E+01  0.0000000E+00  0.2738942E+00 -0.1839612E+01  0.7274362E-01  0.2640575E+00
  0.4761110E+01 -0.8907410E+01  0.0000000E+00  0.2608661E+00 -0.1840803E+01  0.6958295E-01  0.2514147E+00
  0.5611260E+01 -0.8397840E+01  0.0000000E+00  0.2462908E+00 -0.1843084E+01  0.6623639E-01  0.2372170E+00
  0.6407370E+01 -0.7807410E+01  0.0000000E+00  0.2299034E+00 -0.1847965E+01  0.6290936E-01  0.2211289E+00
  0.7141780E+01 -0.7141780E+01  0.0000000E+00  0.2124977E+00 -0.1856122E+01  0.5981182E-01  0.2039064E+00
  0.7807410E+01 -0.6407370E+01  0.0000000E+00  0.1935301E+00 -0.1870074E+01  0.5705856E-01  0.1849276E+00
  0.8397840E+01 -0.5611260E+01  0.0000000E+00  0.1736360E+00 -0.1891110E+01  0.5467182E-01  0.1648043E+00
  0.8907410E+01 -0.4761110E+01  0.0000000E+00  0.1529761E+00 -0.1923973E+01  0.5291138E-01  0.1435342E+00
  0.9331180E+01 -0.3865100E+01  0.0000000E+00  0.1323482E+00 -0.1973186E+01  0.5182990E-01  0.1217773E+00
  0.9665100E+01 -0.2931870E+01  0.0000000E+00  0.1118893E+00 -0.2049796E+01  0.5156890E-01  0.9929691E-01
  0.9905930E+01 -0.1970410E+01  0.0000000E+00  0.9239952E-01 -0.2169136E+01  0.5204602E-01  0.7634712E-01
  0.1005140E+02 -0.9899690E+00  0.0000000E+00  0.7545345E-01 -0.2357349E+01  0.5341521E-01  0.5329202E-01
  0.1010000E+02  0.0000000E+00 -0.2568960E-01  0.6331994E-01 -0.2638766E+01  0.5548244E-01  0.3051415E-01
  0.1005140E+02  0.9899730E+00 -0.2568960E-01  0.5899962E-01 -0.3000933E+01  0.5841692E-01  0.8271545E-02
  0.9905930E+01  0.1970410E+01 -0.2568960E-01  0.6351531E-01  0.2925993E+01  0.6204482E-01 -0.1358803E-01
  0.9665100E+01  0.2931880E+01 -0.2568960E-01  0.7475778E-01  0.2660379E+01  0.6626783E-01 -0.3460205E-01
  0.9331180E+01  0.3865100E+01 -0.2568960E-01  0.8942088E-01  0.2485666E+01  0.7086454E-01 -0.5453723E-01
  0.8907400E+01  0.4761110E+01 -0.2568960E-01  0.1051410E+00  0.2375735E+01  0.7578437E-01 -0.7287902E-01
  0.8397840E+01  0.5611260E+01 -0.2568960E-01  0.1211062E+00  0.2302467E+01  0.8091275E-01 -0.9011017E-01
  0.7807410E+01  0.6407370E+01 -0.2568960E-01  0.1363278E+00  0.2253573E+01  0.8601599E-01 -0.1057664E+00
  0.7141780E+01  0.7141780E+01 -0.2568960E-01  0.1503980E+00  0.2219532E+01  0.9086735E-01 -0.1198444E+00
  0.6407370E+01  0.7807410E+01 -0.2568960E-01  0.1624742E+00  0.2197744E+01  0.9531967E-01 -0.1315752E+00
  0.5611260E+01  0.8397840E+01 -0.2568960E-01  0.1730866E+00  0.2182181E+01  0.9935199E-01 -0.1417327E+00
  0.4761110E+01  0.8907410E+01 -0.2568960E-01  0.1817424E+00  0.2171538E+01  0.1027307E+00 -0.1499224E+00
  0.3865100E+01  0.9331180E+01 -0.2568960E-01  0.1885000E+00  0.2163836E+01  0.1053497E+00 -0.1563128E+00
  0.2931870E+01  0.9665100E+01 -0.2568960E-01  0.1924990E+00  0.2160404E+01  0.1070362E+00 -0.1599973E+00
  0.1970410E+01  0.9905930E+01 -0.2568960E-01  0.1945515E+00  0.2158607E+01  0.1078866E+00 -0.1618973E+00
  0.9899730E+00  0.1005140E+02 -0.2568960E-01  0.1943315E+00  0.2158757E+01  0.1077890E+00 -0.1616981E+00
 -0.4414850E-06  0.1010000E+02 -0.2568960E-01  0.1921318E+00  0.2160334E+01  0.1068209E+00 -0.1596995E+00
 -0.9899740E+00  0.1005140E+02 -0.2568960E-01  0.1871069E+00  0.2165735E+01  0.1048656E+00 -0.1549587E+00
 -0.1970410E+01  0.9905930E+01 -0.2568960E-01  0.1801340E+00  0.2173362E+01  0.1020925E+00 -0.1484095E+00
 -0.2931880E+01  0.9665100E+01 -0.2568960E-01  0.1710911E+00  0.2184777E+01  0.9857006E-01 -0.1398432E+00
 -0.3865100E+01  0.9331180E+01 -0.2568960E-01  0.1604416E+00  0.2200755E+01  0.9451798E-01 -0.1296451E+00
 -0.4761110E+01  0.8907400E+01 -0.2568960E-01  0.1475702E+00  0.2226133E+01  0.8993311E-01 -0.1170000E+00
 -0.5611260E+01  0.8397840E+01 -0.2568960E-01  0.1333009E+00  0.2261983E+01  0.8497296E-01 -0.1027070E+00
 -0.6407370E+01  0.7807410E+01 -0.2568960E-01  0.1178989E+00  0.2314869E+01  0.7985175E-01 -0.8674018E-01
 -0.7141780E+01  0.7141780E+01 -0.2568960E-01  0.1021434E+00  0.2392666E+01  0.7481187E-01 -0.6954468E-01
 -0.7807410E+01  0.6407370E+01 -0.2568960E-01  0.8632071E-01  0.2515655E+01  0.6995552E-01 -0.5057164E-01
 -0.8397840E+01  0.5611260E+01 -0.2568960E-01  0.7208072E-01  0.2706216E+01  0.6535640E-01 -0.3040019E-01
 -0.8907410E+01  0.4761110E+01 -0.2568960E-01  0.6193548E-01  0.2992376E+01  0.6124724E-01 -0.9207535E-02
 -0.9331180E+01  0.3865100E+01 -0.2568960E-01  0.5910602E-01 -0.2928004E+01  0.5776292E-01  0.1252863E-01
 -0.9665100E+01  0.2931880E+01 -0.2568960E-01  0.6522380E-01 -0.2575215E+01  0.5503911E-01  0.3499771E-01
 -0.9905930E+01  0.1970410E+01 -0.2568960E-01  0.7854780E-01 -0.2312004E+01  0.5303383E-01  0.5794109E-01
 -0.1005140E+02  0.9899730E+00 -0.2568960E-01  0.9616338E-01 -0.2140440E+01  0.5186399E-01  0.8097854E-01
 -0.1010000E+02 -0.8829700E-06 -0.2568960E-01  0.1157886E+00 -0.2031513E+01  0.5147851E-01  0.1037158E+00
 -0.1005140E+02 -0.9899740E+00 -0.2568960E-01  0.1362585E+00 -0.1962062E+01  0.5196337E-01  0.1259611E+00
 -0.9905930E+01 -0.1970410E+01 -0.2568960E-01  0.1571026E+00 -0.1916206E+01  0.5319212E-01  0.1478236E+00
 -0.9665100E+01 -0.2931880E+01 -0.2568960E-01  0.1776048E+00 -0.1886246E+01  0.5510077E-01  0.1688413E+00
 -0.9331180E+01 -0.3865100E+01 -0.2568960E-01  0.1973410E+00 -0.1866413E+01  0.5749140E-01  0.1887809E+00
 -0.8907400E+01 -0.4761110E+01 -0.2568960E-01  0.2157411E+00 -0.1854313E+01  0.6035005E-01  0.2071283E+00
 -0.8397840E+01 -0.5611260E+01 -0.2568960E-01  0.2331909E+00 -0.1846812E+01  0.6355017E-01  0.2243644E+00
 -0.7807400E+01 -0.6407370E+01 -0.2568960E-01  0.2491731E+00 -0.1842589E+01  0.6689260E-01  0.2400262E+00
 -0.7141780E+01 -0.7141780E+01 -0.2568960E-01  0.2636172E+00 -0.1840190E+01  0.7016099E-01  0.2541091E+00
 -0.6407370E+01 -0.7807410E+01 -0.2568960E-01  0.2757533E+00 -0.1839677E+01  0.7325466E-01  0.2658451E+00
 -0.5611260E+01 -0.8397850E+01 -0.2568960E-01  0.2863119E+00 -0.1839910E+01  0.7612376E-01  0.2760067E+00
 -0.4761110E+01 -0.8907410E+01 -0.2568960E-01  0.2948587E+00 -0.1840495E+01  0.7856237E-01  0.2841999E+00
 -0.3865100E+01 -0.9331190E+01 -0.2568960E-01  0.3015271E+00 -0.1840919E+01  0.8046236E-01  0.2905932E+00
 -0.2931870E+01 -0.9665100E+01 -0.2568960E-01  0.3054102E+00 -0.1841602E+01  0.8169969E-01  0.2942797E+00
 -0.1970410E+01 -0.9905930E+01 -0.2568960E-01  0.3074104E+00 -0.1841920E+01  0.8232880E-01  0.2961808E+00
 -0.9899710E+00 -0.1005140E+02 -0.2568960E-01  0.3071985E+00 -0.1841862E+01  0.8225504E-01  0.2959814E+00
  0.1204410E-06 -0.1010000E+02 -0.2568960E-01  0.3050806E+00 -0.1841365E+01  0.8154165E-01  0.2939815E+00
  0.9899760E+00 -0.1005140E+02 -0.2568960E-01  0.3001290E+00 -0.1841007E+01  0.8011473E-01  0.2892387E+00
  0.1970410E+01 -0.9905930E+01 -0.2568960E-01  0.2932758E+00 -0.1840335E+01  0.7809550E-01  0.2826868E+00
  0.2931880E+01 -0.9665100E+01 -0.2568960E-01  0.2843392E+00 -0.1839759E+01  0.7555795E-01  0.2741164E+00
  0.3865100E+01 -0.9331180E+01 -0.2568960E-01  0.2737422E+00 -0.1839581E+01  0.7269509E-01  0.2639133E+00
  0.4761110E+01 -0.8907410E+01 -0.2568960E-01  0.2607078E+00 -0.1840783E+01  0.6953553E-01  0.2512635E+00
  0.5611260E+01 -0.8397840E+01 -0.2568960E-01  0.2460362E+00 -0.1843179E+01  0.6619046E-01  0.2369655E+00
  0.6407370E+01 -0.7807410E+01 -0.2568960E-01  0.2297607E+00 -0.1847939E+01  0.6286445E-01  0.2209933E+00
  0.7141780E+01 -0.7141780E+01 -0.2568960E-01  0.2123753E+00 -0.1856074E+01  0.5976756E-01  0.2037918E+00
  0.7807410E+01 -0.6407370E+01 -0.2568960E-01  0.1934096E+00 -0.1870042E+01  0.5701705E-01  0.1848143E+00
  0.8397840E+01 -0.5611260E+01 -0.2568960E-01  0.1734713E+00 -0.1891279E+01  0.5464779E-01  0.1646387E+00
  0.8907410E+01 -0.4761110E+01 -0.2568960E-01  0.1528759E+00 -0.1923935E+01  0.5287131E-01  0.1434422E+00
  0.9331180E+01 -0.3865100E+01 -0.2568960E-01  0.1322631E+00 -0.1973114E+01  0.5178787E-01  0.1217027E+00
  0.9665100E+01 -0.2931870E+01 -0.2568960E-01  0.1118136E+00 -0.2049754E+01  0.5152979E-01  0.9923188E-01
  0.9905930E+01 -0.1970410E+01 -0.2568960E-01  0.9234148E-01 -0.2169349E+01  0.5202960E-01  0.7628807E-01
  0.1005140E+02 -0.9899690E+00 -0.2568960E-01  0.7539545E-01 -0.2357359E+01  0.5337468E-01  0.5325052E-01
  0.1010000E+02  0.0000000E+00 -0.1027320E+00  0.6316531E-01 -0.2638902E+01  0.5535110E-01  0.3043210E-01
  0.1005140E+02  0.9899730E+00 -0.1027320E+00  0.5886894E-01 -0.3001066E+01  0.5828863E-01  0.8245425E-02
  0.9905930E+01  0.1970410E+01 -0.1027320E+00  0.6338430E-01  0.2926242E+01  0.6192021E-01 -0.1354461E-01
  0.9665100E+01  0.2931880E+01 -0.1027320E+00  0.7460913E-01  0.2660116E+01  0.6612698E-01 -0.3455062E-01
  0.9331180E+01  0.3865100E+01 -0.1027320E+00  0.8926053E-01  0.2485186E+01  0.7071131E-01 -0.5447342E-01
  0.8907400E+01  0.4761110E+01 -0.1027320E+00  0.1049347E+00  0.2375588E+01  0.7562505E-01 -0.7274716E-01
  0.8397840E+01  0.5611260E+01 -0.1027320E+00  0.1208289E+00  0.2302659E+01  0.8074465E-01 -0.8988836E-01
  0.7807410E+01  0.6407370E+01 -0.1027320E+00  0.1360683E+00  0.2253466E+01  0.8584096E-01 -0.1055742E+00
  0.7141780E+01  0.7141780E+01 -0.1027320E+00  0.1501484E+00  0.2219287E+01  0.9068718E-01 -0.1196677E+00
  0.6407370E+01  0.7807410E+01 -0.1027320E+00  0.1621614E+00  0.2197675E+01  0.9512702E-01 -0.1313285E+00
  0.5611260E+01  0.8397840E+01 -0.1027320E+00  0.1726862E+00  0.2182324E+01  0.9914242E-01 -0.1413906E+00
  0.4761110E+01  0.8907410E+01 -0.1027320E+00  0.1813949E+00  0.2171485E+01  0.1025264E+00 -0.1496411E+00
  0.3865100E+01  0.9331180E+01 -0.1027320E+00  0.1881887E+00  0.2163673E+01  0.1051503E+00 -0.1560718E+00
  0.2931870E+01  0.9665100E+01 -0.1027320E+00  0.1921297E+00  0.2160360E+01  0.1068238E+00 -0.1596950E+00
  0.1970410E+01  0.9905930E+01 -0.1027320E+00  0.1941010E+00  0.2158733E+01  0.1076572E+00 -0.1615088E+00
  0.9899730E+00  0.1005140E+02 -0.1027320E+00  0.1939588E+00  0.2158713E+01  0.1075752E+00 -0.1613927E+00
 -0.4414850E-06  0.1010000E+02 -0.1027320E+00  0.1918146E+00  0.2160178E+01  0.1066196E+00 -0.1594525E+00
 -0.9899740E+00  0.1005140E+02 -0.1027320E+00  0.1867495E+00  0.2165686E+01  0.1046577E+00 -0.1546678E+00
 -0.1970410E+01  0.9905930E+01 -0.1027320E+00  0.1797169E+00  0.2173500E+01  0.1018764E+00 -0.1480518E+00
 -0.2931880E+01  0.9665100E+01 -0.1027320E+00  0.1707623E+00  0.2184713E+01  0.9837163E-01 -0.1395808E+00
 -0.3865100E+01  0.9331180E+01 -0.1027320E+00  0.1601756E+00  0.2200537E+01  0.9433301E-01 -0.1294508E+00
 -0.4761110E+01  0.8907400E+01 -0.1027320E+00  0.1472896E+00  0.2226041E+01  0.8975136E-01 -0.1167858E+00
 -0.5611260E+01  0.8397840E+01 -0.1027320E+00  0.1329947E+00  0.2262160E+01  0.8479587E-01 -0.1024560E+00
 -0.6407370E+01  0.7807410E+01 -0.1027320E+00  0.1176692E+00  0.2314747E+01  0.7968556E-01 -0.8658092E-01
 -0.7141780E+01  0.7141780E+01 -0.1027320E+00  0.1019661E+00  0.2392251E+01  0.7465322E-01 -0.6945492E-01
 -0.7807410E+01  0.6407370E+01 -0.1027320E+00  0.8615267E-01  0.2515435E+01  0.6980823E-01 -0.5048855E-01
 -0.8397840E+01  0.5611260E+01 -0.1027320E+00  0.7192586E-01  0.2706483E+01  0.6522408E-01 -0.3031746E-01
 -0.8907410E+01  0.4761110E+01 -0.1027320E+00  0.6180239E-01  0.2992180E+01  0.6111383E-01 -0.9199728E-02
 -0.9331180E+01  0.3865100E+01 -0.1027320E+00  0.5896316E-01 -0.2928366E+01  0.5762783E-01  0.1247745E-01
 -0.9665100E+01  0.2931880E+01 -0.1027320E+00  0.6507589E-01 -0.2575320E+01  0.5491796E-01  0.3491259E-01
 -0.9905930E+01  0.1970410E+01 -0.1027320E+00  0.7838640E-01 -0.2312081E+01  0.5292932E-01  0.5781796E-01
 -0.1005140E+02  0.9899730E+00 -0.1027320E+00  0.9595987E-01 -0.2140373E+01  0.5174885E-01  0.8081061E-01
 -0.1010000E+02 -0.8829700E-06 -0.1027320E+00  0.1155485E+00 -0.2031352E+01  0.5135506E-01  0.1035090E+00
 -0.1005140E+02 -0.9899740E+00 -0.1027320E+00  0.1359717E+00 -0.1962019E+01  0.5184857E-01  0.1256982E+00
 -0.9905930E+01 -0.1970410E+01 -0.1027320E+00  0.1567545E+00 -0.1916293E+01  0.5308710E-01  0.1474914E+00
 -0.9665100E+01 -0.2931880E+01 -0.1027320E+00  0.1772449E+00 -0.1886207E+01  0.5498267E-01  0.1685012E+00
 -0.9331180E+01 -0.3865100E+01 -0.1027320E+00  0.1969666E+00 -0.1866318E+01  0.5736443E-01  0.1884282E+00
 -0.8907400E+01 -0.4761110E+01 -0.1027320E+00  0.2153014E+00 -0.1854292E+01  0.6022278E-01  0.2067073E+00
 -0.8397840E+01 -0.5611260E+01 -0.1027320E+00  0.2326645E+00 -0.1846876E+01  0.6342111E-01  0.2238539E+00
 -0.7807400E+01 -0.6407370E+01 -0.1027320E+00  0.2486733E+00 -0.1842581E+01  0.6675667E-01  0.2395453E+00
 -0.7141780E+01 -0.7141780E+01 -0.1027320E+00  0.2631307E+00 -0.1840151E+01  0.7002161E-01  0.2536430E+00
 -0.6407370E+01 -0.7807410E+01 -0.1027320E+00  0.2751979E+00 -0.1839679E+01  0.7310759E-01  0.2653095E+00
 -0.5611260E+01 -0.8397850E+01 -0.1027320E+00  0.2856616E+00 -0.1839964E+01  0.7596570E-01  0.2753757E+00
 -0.4761110E+01 -0.8907410E+01 -0.1027320E+00  0.2942689E+00 -0.1840504E+01  0.7840785E-01  0.2836308E+00
 -0.3865100E+01 -0.9331190E+01 -0.1027320E+00  0.3009760E+00 -0.1840907E+01  0.8031185E-01  0.2900631E+00
 -0.2931870E+01 -0.9665100E+01 -0.1027320E+00  0.3047982E+00 -0.1841615E+01  0.8153977E-01  0.2936890E+00
 -0.1970410E+01 -0.9905930E+01 -0.1027320E+00  0.3067114E+00 -0.1841970E+01  0.8215635E-01  0.2955033E+00
 -0.9899710E+00 -0.1005140E+02 -0.1027320E+00  0.3065831E+00 -0.1841876E+01  0.8209420E-01  0.2953874E+00
  0.1204410E-06 -0.1010000E+02 -0.1027320E+00  0.3045237E+00 -0.1841355E+01  0.8138999E-01  0.2934457E+00
  0.9899760E+00 -0.1005140E+02 -0.1027320E+00  0.2995285E+00 -0.1841018E+01  0.7995764E-01  0.2886591E+00
  0.1970410E+01 -0.9905930E+01 -0.1027320E+00  0.2926092E+00 -0.1840388E+01  0.7793279E-01  0.2820401E+00
  0.2931880E+01 -0.9665100E+01 -0.1027320E+00  0.2837673E+00 -0.1839763E+01  0.7540692E-01  0.2735648E+00
  0.3865100E+01 -0.9331180E+01 -0.1027320E+00  0.2732390E+00 -0.1839549E+01  0.7255282E-01  0.2634305E+00
  0.4761110E+01 -0.8907410E+01 -0.1027320E+00  0.2601856E+00 -0.1840781E+01  0.6939583E-01  0.2507604E+00
  0.5611260E+01 -0.8397840E+01 -0.1027320E+00  0.2454802E+00 -0.1843240E+01  0.6605529E-01  0.2364260E+00
  0.6407370E+01 -0.7807410E+01 -0.1027320E+00  0.2292938E+00 -0.1847924E+01  0.6273348E-01  0.2205452E+00
  0.7141780E+01 -0.7141780E+01 -0.1027320E+00  0.2119758E+00 -0.1855993E+01  0.5963857E-01  0.2034133E+00
  0.7807410E+01 -0.6407370E+01 -0.1027320E+00  0.1930188E+00 -0.1870012E+01  0.5689623E-01  0.1844426E+00
  0.8397840E+01 -0.5611260E+01 -0.1027320E+00  0.1730846E+00 -0.1891359E+01  0.5453914E-01  0.1642673E+00
  0.8907410E+01 -0.4761110E+01 -0.1027320E+00  0.1525574E+00 -0.1923894E+01  0.5275532E-01  0.1431456E+00
  0.9331180E+01 -0.3865100E+01 -0.1027320E+00  0.1319964E+00 -0.1972959E+01  0.5166468E-01  0.1214653E+00
  0.9665100E+01 -0.2931870E+01 -0.1027320E+00  0.1115803E+00 -0.2049686E+01  0.5141557E-01  0.9902834E-01
  0.9905930E+01 -0.1970410E+01 -0.1027320E+00  0.9214696E-01 -0.2169446E+01  0.5192735E-01  0.7612235E-01
  0.1005140E+02 -0.9899690E+00 -0.1027320E+00  0.7522647E-01 -0.2357386E+01  0.5325651E-01  0.5312971E-01
  0.1010000E+02  0.0000000E+00 -0.2310450E+00  0.6293124E-01 -0.2639105E+01  0.5515213E-01  0.3030813E-01
  0.1005140E+02  0.9899730E+00 -0.2310450E+00  0.5866133E-01 -0.3001281E+01  0.5808483E-01  0.8203908E-02
  0.9905930E+01  0.1970410E+01 -0.2310450E+00  0.6316751E-01  0.2925781E+01  0.6170220E-01 -0.1352673E-01
  0.9665100E+01  0.2931880E+01 -0.2310450E+00  0.7436471E-01  0.2659805E+01  0.6589961E-01 -0.3445796E-01
  0.9331180E+01  0.3865100E+01 -0.2310450E+00  0.8897767E-01  0.2484805E+01  0.7046658E-01 -0.5432760E-01
  0.8907400E+01  0.4761110E+01 -0.2310450E+00  0.1045913E+00  0.2375427E+01  0.7536586E-01 -0.7252124E-01
  0.8397840E+01  0.5611260E+01 -0.2310450E+00  0.1204507E+00  0.2302423E+01  0.8047080E-01 -0.8962607E-01
  0.7807410E+01  0.6407370E+01 -0.2310450E+00  0.1356307E+00  0.2253343E+01  0.8555193E-01 -0.1052453E+00
  0.7141780E+01  0.7141780E+01 -0.2310450E+00  0.1496836E+00  0.2219101E+01  0.9038437E-01 -0.1193140E+00
  0.6407370E+01  0.7807410E+01 -0.2310450E+00  0.1616338E+00  0.2197592E+01  0.9480666E-01 -0.1309091E+00
  0.5611260E+01  0.8397840E+01 -0.2310450E+00  0.1721473E+00  0.2182190E+01  0.9881416E-01 -0.1409626E+00
  0.4761110E+01  0.8907410E+01 -0.2310450E+00  0.1808083E+00  0.2171418E+01  0.1021848E+00 -0.1491641E+00
  0.3865100E+01  0.9331180E+01 -0.2310450E+00  0.1876061E+00  0.2163551E+01  0.1048057E+00 -0.1556015E+00
  0.2931870E+01  0.9665100E+01 -0.2310450E+00  0.1915061E+00  0.2160304E+01  0.1064681E+00 -0.1591827E+00
  0.1970410E+01  0.9905930E+01 -0.2310450E+00  0.1934944E+00  0.2158630E+01  0.1073042E+00 -0.1610152E+00
  0.9899730E+00  0.1005140E+02 -0.2310450E+00  0.1933293E+00  0.2158658E+01  0.1072171E+00 -0.1608748E+00
 -0.4414850E-06  0.1010000E+02 -0.2310450E+00  0.1912208E+00  0.2160060E+01  0.1062708E+00 -0.1589714E+00
 -0.9899740E+00  0.1005140E+02 -0.2310450E+00  0.1861449E+00  0.2165625E+01  0.1043094E+00 -0.1541736E+00
 -0.1970410E+01  0.9905930E+01 -0.2310450E+00  0.1791563E+00  0.2173376E+01  0.1015404E+00 -0.1476026E+00
 -0.2931880E+01  0.9665100E+01 -0.2310450E+00  0.1702068E+00  0.2184640E+01  0.9804152E-01 -0.1391339E+00
 -0.3865100E+01  0.9331180E+01 -0.2310450E+00  0.1596802E+00  0.2200369E+01  0.9401964E-01 -0.1290661E+00
 -0.4761110E+01  0.8907400E+01 -0.2310450E+00  0.1468152E+00  0.2225936E+01  0.8945013E-01 -0.1164190E+00
 -0.5611260E+01  0.8397840E+01 -0.2310450E+00  0.1325792E+00  0.2261954E+01  0.8450996E-01 -0.1021534E+00
 -0.6407370E+01  0.7807410E+01 -0.2310450E+00  0.1172852E+00  0.2314607E+01  0.7941345E-01 -0.8630943E-01
 -0.7141780E+01  0.7141780E+01 -0.2310450E+00  0.1016467E+00  0.2391925E+01  0.7439678E-01 -0.6926159E-01
 -0.7807410E+01  0.6407370E+01 -0.2310450E+00  0.8587392E-01  0.2515177E+01  0.6956939E-01 -0.5034312E-01
 -0.8397840E+01  0.5611260E+01 -0.2310450E+00  0.7168914E-01  0.2706042E+01  0.6499609E-01 -0.3024633E-01
 -0.8907410E+01  0.4761110E+01 -0.2310450E+00  0.6158927E-01  0.2991926E+01  0.6090075E-01 -0.9183496E-02
 -0.9331180E+01  0.3865100E+01 -0.2310450E+00  0.5874753E-01 -0.2928739E+01  0.5742172E-01  0.1241040E-01
 -0.9665100E+01  0.2931880E+01 -0.2310450E+00  0.6483989E-01 -0.2575523E+01  0.5472587E-01  0.3477485E-01
 -0.9905930E+01  0.1970410E+01 -0.2310450E+00  0.7810291E-01 -0.2312107E+01  0.5273941E-01  0.5760746E-01
 -0.1005140E+02  0.9899730E+00 -0.2310450E+00  0.9562497E-01 -0.2140361E+01  0.5156725E-01  0.8052921E-01
 -0.1010000E+02 -0.8829700E-06 -0.2310450E+00  0.1151476E+00 -0.2031283E+01  0.5116973E-01  0.1031534E+00
 -0.1005140E+02 -0.9899740E+00 -0.2310450E+00  0.1354977E+00 -0.1962013E+01  0.5166714E-01  0.1252603E+00
 -0.9905930E+01 -0.1970410E+01 -0.2310450E+00  0.1562230E+00 -0.1916239E+01  0.5289914E-01  0.1469942E+00
 -0.9665100E+01 -0.2931880E+01 -0.2310450E+00  0.1766425E+00 -0.1886196E+01  0.5479386E-01  0.1679291E+00
 -0.9331180E+01 -0.3865100E+01 -0.2310450E+00  0.1963105E+00 -0.1866274E+01  0.5716499E-01  0.1878031E+00
 -0.8907400E+01 -0.4761110E+01 -0.2310450E+00  0.2145665E+00 -0.1854292E+01  0.6001716E-01  0.2060018E+00
 -0.8397840E+01 -0.5611260E+01 -0.2310450E+00  0.2318923E+00 -0.1846857E+01  0.6320644E-01  0.2231121E+00
 -0.7807400E+01 -0.6407370E+01 -0.2310450E+00  0.2478346E+00 -0.1842590E+01  0.6653362E-01  0.2387369E+00
 -0.7141780E+01 -0.7141780E+01 -0.2310450E+00  0.2622661E+00 -0.1840141E+01  0.6978895E-01  0.2528102E+00
 -0.6407370E+01 -0.7807410E+01 -0.2310450E+00  0.2742662E+00 -0.1839692E+01  0.7286357E-01  0.2644104E+00
 -0.5611260E+01 -0.8397850E+01 -0.2310450E+00  0.2847206E+00 -0.1839968E+01  0.7571654E-01  0.2744682E+00
 -0.4761110E+01 -0.8907410E+01 -0.2310450E+00  0.2932776E+00 -0.1840526E+01  0.7814994E-01  0.2826735E+00
 -0.3865100E+01 -0.9331190E+01 -0.2310450E+00  0.2999913E+00 -0.1840917E+01  0.8005188E-01  0.2891132E+00
 -0.2931870E+01 -0.9665100E+01 -0.2310450E+00  0.3037703E+00 -0.1841637E+01  0.8127110E-01  0.2926968E+00
 -0.1970410E+01 -0.9905930E+01 -0.2310450E+00  0.3057029E+00 -0.1841984E+01  0.8189043E-01  0.2945305E+00
 -0.9899710E+00 -0.1005140E+02 -0.2310450E+00  0.3055496E+00 -0.1841898E+01  0.8182415E-01  0.2943898E+00
  0.1204410E-06 -0.1010000E+02 -0.2310450E+00  0.3035274E+00 -0.1841366E+01  0.8112697E-01  0.2924847E+00
  0.9899760E+00 -0.1005140E+02 -0.2310450E+00  0.2985199E+00 -0.1841040E+01  0.7969487E-01  0.2876853E+00
  0.1970410E+01 -0.9905930E+01 -0.2310450E+00  0.2916459E+00 -0.1840396E+01  0.7767847E-01  0.2811110E+00
  0.2931880E+01 -0.9665100E+01 -0.2310450E+00  0.2828079E+00 -0.1839779E+01  0.7515632E-01  0.2726386E+00
  0.3865100E+01 -0.9331180E+01 -0.2310450E+00  0.2723420E+00 -0.1839546E+01  0.7231383E-01  0.2625660E+00
  0.4761110E+01 -0.8907410E+01 -0.2310450E+00  0.2593085E+00 -0.1840793E+01  0.6916496E-01  0.2499142E+00
  0.5611260E+01 -0.8397840E+01 -0.2310450E+00  0.2446669E+00 -0.1843227E+01  0.6583336E-01  0.2356435E+00
  0.6407370E+01 -0.7807410E+01 -0.2310450E+00  0.2285129E+00 -0.1847926E+01  0.6252015E-01  0.2197939E+00
  0.7141780E+01 -0.7141780E+01 -0.2310450E+00  0.2112724E+00 -0.1855956E+01  0.5943312E-01  0.2027406E+00
  0.7807410E+01 -0.6407370E+01 -0.2310450E+00  0.1923643E+00 -0.1870005E+01  0.5670217E-01  0.1838176E+00
  0.8397840E+01 -0.5611260E+01 -0.2310450E+00  0.1725016E+00 -0.1891312E+01  0.5434770E-01  0.1637166E+00
  0.8907410E+01 -0.4761110E+01 -0.2310450E+00  0.1520288E+00 -0.1923887E+01  0.5257155E-01  0.1426499E+00
  0.9331180E+01 -0.3865100E+01 -0.2310450E+00  0.1315439E+00 -0.1972888E+01  0.5147890E-01  0.1210526E+00
  0.9665100E+01 -0.2931870E+01 -0.2310450E+00  0.1111941E+00 -0.2049665E+01  0.5123550E-01  0.9868660E-01
  0.9905930E+01 -0.1970410E+01 -0.2310450E+00  0.9181961E-01 -0.2169421E+01  0.5174095E-01  0.7585324E-01
  0.1005140E+02 -0.9899690E+00 -0.2310450E+00  0.7495435E-01 -0.2357500E+01  0.5306987E-01  0.5293150E-01
  0.1010000E+02  0.0000000E+00 -0.4105000E+00  0.6260666E-01 -0.2639249E+01  0.5487202E-01  0.3014390E-01
  0.1005140E+02  0.9899730E+00 -0.4105000E+00  0.5835228E-01 -0.3001763E+01  0.5778275E-01  0.8132801E-02
  0.9905930E+01  0.1970410E+01 -0.4105000E+00  0.6285491E-01  0.2925180E+01  0.6138876E-01 -0.1349663E-01
  0.9665100E+01  0.2931880E+01 -0.4105000E+00  0.7402122E-01  0.2658949E+01  0.6556585E-01 -0.3435491E-01
  0.9331180E+01  0.3865100E+01 -0.4105000E+00  0.8855981E-01  0.2484412E+01  0.7011437E-01 -0.5410004E-01
  0.8907400E+01  0.4761110E+01 -0.4105000E+00  0.1041245E+00  0.2374850E+01  0.7498778E-01 -0.7224088E-01
  0.8397840E+01  0.5611260E+01 -0.4105000E+00  0.1199052E+00  0.2302040E+01  0.8007219E-01 -0.8925072E-01
  0.7807410E+01  0.6407370E+01 -0.4105000E+00  0.1350452E+00  0.2252873E+01  0.8513340E-01 -0.1048308E+00
  0.7141780E+01  0.7141780E+01 -0.4105000E+00  0.1489930E+00  0.2218864E+01  0.8993913E-01 -0.1187849E+00
  0.6407370E+01  0.7807410E+01 -0.4105000E+00  0.1609305E+00  0.2197216E+01  0.9434512E-01 -0.1303749E+00
  0.5611260E+01  0.8397840E+01 -0.4105000E+00  0.1713727E+00  0.2181924E+01  0.9833215E-01 -0.1403545E+00
  0.4761110E+01  0.8907410E+01 -0.4105000E+00  0.1800287E+00  0.2171084E+01  0.1016946E+00 -0.1485549E+00
  0.3865100E+01  0.9331180E+01 -0.4105000E+00  0.1867416E+00  0.2163360E+01  0.1042932E+00 -0.1549043E+00
  0.2931870E+01  0.9665100E+01 -0.4105000E+00  0.1906772E+00  0.2159991E+01  0.1059576E+00 -0.1585269E+00
  0.1970410E+01  0.9905930E+01 -0.4105000E+00  0.1926238E+00  0.2158398E+01  0.1067843E+00 -0.1603155E+00
  0.9899730E+00  0.1005140E+02 -0.4105000E+00  0.1924933E+00  0.2158348E+01  0.1067039E+00 -0.1602122E+00
 -0.4414850E-06  0.1010000E+02 -0.4105000E+00  0.1903389E+00  0.2159875E+01  0.1057514E+00 -0.1582578E+00
 -0.9899740E+00  0.1005140E+02 -0.4105000E+00  0.1853418E+00  0.2165301E+01  0.1038096E+00 -0.1535420E+00
 -0.1970410E+01  0.9905930E+01 -0.4105000E+00  0.1783497E+00  0.2173123E+01  0.1010460E+00 -0.1469636E+00
 -0.2931880E+01  0.9665100E+01 -0.4105000E+00  0.1694672E+00  0.2184286E+01  0.9756628E-01 -0.1385638E+00
 -0.3865100E+01  0.9331180E+01 -0.4105000E+00  0.1589437E+00  0.2200147E+01  0.9355745E-01 -0.1284917E+00
 -0.4761110E+01  0.8907400E+01 -0.4105000E+00  0.1461823E+00  0.2225507E+01  0.8901479E-01 -0.1159553E+00
 -0.5611260E+01  0.8397840E+01 -0.4105000E+00  0.1319804E+00  0.2261607E+01  0.8409295E-01 -0.1017212E+00
 -0.6407370E+01  0.7807410E+01 -0.4105000E+00  0.1167667E+00  0.2314086E+01  0.7901762E-01 -0.8596905E-01
 -0.7141780E+01  0.7141780E+01 -0.4105000E+00  0.1011733E+00  0.2391581E+01  0.7402658E-01 -0.6896447E-01