 VARIABLES="X" "Y" "Z" "abs(eta) (m)" "angle(phi) (rad)" "PRE1" "PRE2"
ZONE N=   3200 ,E =    3136 ,F=FEPOINT,ET=QUADRILATERAL
  0.1010000E+02  0.0000000E+00  0.0000000E+00  0.1922200E+00  0.2160443E+01  0.1068872E+00 -0.1597612E+00
  0.1005140E+02  0.9899730E+00  0.0000000E+00  0.1944371E+00  0.2158828E+01  0.1078590E+00 -0.1617783E+00
  0.9905930E+01  0.1970410E+01  0.0000000E+00  0.1947919E+00  0.2158385E+01  0.1079839E+00 -0.1621214E+00
  0.9665100E+01  0.2931880E+01  0.0000000E+00  0.1926040E+00  0.2160476E+01  0.1071062E+00 -0.1600768E+00
  0.9331180E+01  0.3865100E+01  0.0000000E+00  0.1885873E+00  0.2163945E+01  0.1054155E+00 -0.1563737E+00
  0.8907400E+01  0.4761110E+01  0.0000000E+00  0.1818409E+00  0.2171616E+01  0.1027980E+00 -0.1499956E+00
  0.8397840E+01  0.5611260E+01  0.0000000E+00  0.1732996E+00  0.2181914E+01  0.9943634E-01 -0.1419336E+00
  0.7807410E+01  0.6407370E+01  0.0000000E+00  0.1625637E+00  0.2197830E+01  0.9538353E-01 -0.1316394E+00
  0.7141780E+01  0.7141780E+01  0.0000000E+00  0.1504683E+00  0.2219677E+01  0.9092727E-01 -0.1198872E+00
  0.6407370E+01  0.7807410E+01  0.0000000E+00  0.1364020E+00  0.2253680E+01  0.8607411E-01 -0.1058147E+00
  0.5611260E+01  0.8397840E+01  0.0000000E+00  0.1212481E+00  0.2302040E+01  0.8096892E-01 -0.9025037E-01
  0.4761110E+01  0.8907410E+01  0.0000000E+00  0.1052011E+00  0.2375870E+01  0.7583760E-01 -0.7291050E-01
  0.3865100E+01  0.9331180E+01  0.0000000E+00  0.8946814E-01  0.2485923E+01  0.7091600E-01 -0.5454787E-01
  0.2931870E+01  0.9665100E+01  0.0000000E+00  0.7480323E-01  0.2660584E+01  0.6631522E-01 -0.3460946E-01
  0.1970410E+01  0.9905930E+01  0.0000000E+00  0.6355388E-01  0.2925339E+01  0.6207359E-01 -0.1363687E-01
  0.9899730E+00  0.1005140E+02  0.0000000E+00  0.5904464E-01 -0.3000797E+01  0.5846037E-01  0.8285785E-02
 -0.4414850E-06  0.1010000E+02  0.0000000E+00  0.6337361E-01 -0.2638679E+01  0.5552680E-01  0.3054487E-01
 -0.9899740E+00  0.1005140E+02  0.0000000E+00  0.7545355E-01 -0.2357342E+01  0.5341491E-01  0.5329245E-01
 -0.1970410E+01  0.9905930E+01  0.0000000E+00  0.9239960E-01 -0.2169129E+01  0.5204552E-01  0.7634756E-01
 -0.2931880E+01  0.9665100E+01  0.0000000E+00  0.1118898E+00 -0.2049791E+01  0.5156858E-01  0.9929761E-01
 -0.3865100E+01  0.9331180E+01  0.0000000E+00  0.1323487E+00 -0.1973181E+01  0.5182959E-01  0.1217780E+00
 -0.4761110E+01  0.8907400E+01  0.0000000E+00  0.1529769E+00 -0.1923969E+01  0.5291109E-01  0.1435352E+00
 -0.5611260E+01  0.8397840E+01  0.0000000E+00  0.1736364E+00 -0.1891108E+01  0.5467154E-01  0.1648048E+00
 -0.6407370E+01  0.7807410E+01  0.0000000E+00  0.1935305E+00 -0.1870072E+01  0.5705829E-01  0.1849281E+00
 -0.7141780E+01  0.7141780E+01  0.0000000E+00  0.2124985E+00 -0.1856121E+01  0.5981167E-01  0.2039072E+00
 -0.7807410E+01  0.6407370E+01  0.0000000E+00  0.2299042E+00 -0.1847963E+01  0.6290895E-01  0.2211298E+00
 -0.8397840E+01  0.5611260E+01  0.0000000E+00  0.2462914E+00 -0.1843082E+01  0.6623594E-01  0.2372177E+00
 -0.8907410E+01  0.4761110E+01  0.0000000E+00  0.2608674E+00 -0.1840802E+01  0.6958287E-01  0.2514160E+00
 -0.9331180E+01  0.3865100E+01  0.0000000E+00  0.2738947E+00 -0.1839610E+01  0.7274326E-01  0.2640582E+00
 -0.9665100E+01  0.2931880E+01  0.0000000E+00  0.2845132E+00 -0.1839775E+01  0.7560860E-01  0.2742829E+00
 -0.9905930E+01  0.1970410E+01  0.0000000E+00  0.2935883E+00 -0.1840277E+01  0.7816220E-01  0.2829925E+00
 -0.1005140E+02  0.9899730E+00  0.0000000E+00  0.3003113E+00 -0.1841020E+01  0.8016717E-01  0.2894134E+00
 -0.1010000E+02 -0.8829700E-06  0.0000000E+00  0.3052484E+00 -0.1841386E+01  0.8159279E-01  0.2941415E+00
 -0.1005140E+02 -0.9899740E+00  0.0000000E+00  0.3073847E+00 -0.1841876E+01  0.8230892E-01  0.2961597E+00
 -0.9905930E+01 -0.1970410E+01  0.0000000E+00  0.3077407E+00 -0.1841871E+01  0.8240281E-01  0.2965031E+00
 -0.9665100E+01 -0.2931880E+01  0.0000000E+00  0.3055957E+00 -0.1841616E+01  0.8175330E-01  0.2944573E+00
 -0.9331180E+01 -0.3865100E+01  0.0000000E+00  0.3016935E+00 -0.1840941E+01  0.8051310E-01  0.2907518E+00
 -0.8907400E+01 -0.4761110E+01  0.0000000E+00  0.2950375E+00 -0.1840509E+01  0.7861409E-01  0.2843712E+00
 -0.8397840E+01 -0.5611260E+01  0.0000000E+00  0.2866166E+00 -0.1839845E+01  0.7618679E-01  0.2763054E+00
 -0.7807400E+01 -0.6407370E+01  0.0000000E+00  0.2759217E+00 -0.1839695E+01  0.7330422E-01  0.2660062E+00
 -0.7141780E+01 -0.7141780E+01  0.0000000E+00  0.2637641E+00 -0.1840222E+01  0.7020812E-01  0.2542486E+00
 -0.6407370E+01 -0.7807410E+01  0.0000000E+00  0.2493249E+00 -0.1842608E+01  0.6693811E-01  0.2401712E+00
 -0.5611260E+01 -0.8397850E+01  0.0000000E+00  0.2334300E+00 -0.1846702E+01  0.6359056E-01  0.2246014E+00
 -0.4761110E+01 -0.8907410E+01  0.0000000E+00  0.2158758E+00 -0.1854339E+01  0.6039319E-01  0.2072560E+00
 -0.3865100E+01 -0.9331190E+01  0.0000000E+00  0.1974562E+00 -0.1866464E+01  0.5753453E-01  0.1888881E+00
 -0.2931870E+01 -0.9665100E+01  0.0000000E+00  0.1777166E+00 -0.1886277E+01  0.5514069E-01  0.1689459E+00
 -0.1970410E+01 -0.9905930E+01  0.0000000E+00  0.1572465E+00 -0.1916015E+01  0.5321254E-01  0.1479692E+00
 -0.9899710E+00 -0.1005140E+02  0.0000000E+00  0.1363498E+00 -0.1962095E+01  0.5200231E-01  0.1260437E+00
  0.1204410E-06 -0.1010000E+02  0.0000000E+00  0.1158667E+00 -0.2031581E+01  0.5152027E-01  0.1037823E+00
  0.9899760E+00 -0.1005140E+02  0.0000000E+00  0.9623111E-01 -0.2140474E+01  0.5190330E-01  0.8103378E-01
  0.1970410E+01 -0.9905930E+01  0.0000000E+00  0.7858673E-01 -0.2311837E+01  0.5305047E-01  0.5797864E-01
  0.2931880E+01 -0.9665100E+01  0.0000000E+00  0.6527559E-01 -0.2575139E+01  0.5508014E-01  0.3502971E-01
  0.3865100E+01 -0.9331180E+01  0.0000000E+00  0.5915486E-01 -0.2927794E+01  0.5780803E-01  0.1255110E-01
  0.4761110E+01 -0.8907410E+01  0.0000000E+00  0.6197916E-01  0.2992562E+01  0.6129215E-01 -0.9202653E-02
  0.5611260E+01 -0.8397840E+01  0.0000000E+00  0.7213977E-01  0.2705549E+01  0.6538962E-01 -0.3046874E-01
  0.6407370E+01 -0.7807410E+01  0.0000000E+00  0.8636982E-01  0.2515838E+01  0.7000459E-01 -0.5058758E-01
  0.7141780E+01 -0.7141780E+01  0.0000000E+00  0.1021938E+00  0.2392895E+01  0.7486471E-01 -0.6956185E-01
  0.7807410E+01 -0.6407370E+01  0.0000000E+00  0.1179646E+00  0.2314992E+01  0.7990693E-01 -0.8677863E-01
  0.8397840E+01 -0.5611260E+01  0.0000000E+00  0.1334596E+00  0.2261605E+01  0.8503523E-01 -0.1028614E+00
  0.8907410E+01 -0.4761110E+01  0.0000000E+00  0.1476495E+00  0.2226232E+01  0.8999313E-01 -0.1170539E+00
  0.9331180E+01 -0.3865100E+01  0.0000000E+00  0.1605155E+00  0.2200892E+01  0.9457935E-01 -0.1296919E+00
  0.9665100E+01 -0.2931870E+01  0.0000000E+00  0.1711848E+00  0.2184859E+01  0.9863544E-01 -0.1399117E+00
  0.9905930E+01 -0.1970410E+01  0.0000000E+00  0.1803554E+00  0.2173112E+01  0.1021807E+00 -0.1486175E+00
  0.1005140E+02 -0.9899690E+00  0.0000000E+00  0.1872081E+00  0.2165810E+01  0.1049339E+00 -0.1550347E+00
  0.1010000E+02  0.0000000E+00 -0.2568960E-01  0.1921308E+00  0.2160334E+01  0.1068203E+00 -0.1596987E+00
  0.1005140E+02  0.9899730E+00 -0.2568960E-01  0.1943304E+00  0.2158757E+01  0.1077883E+00 -0.1616972E+00
  0.9905930E+01  0.1970410E+01 -0.2568960E-01  0.1945505E+00  0.2158606E+01  0.1078859E+00 -0.1618967E+00
  0.9665100E+01  0.2931880E+01 -0.2568960E-01  0.1924981E+00  0.2160405E+01  0.1070359E+00 -0.1599964E+00
  0.9331180E+01  0.3865100E+01 -0.2568960E-01  0.1884993E+00  0.2163835E+01  0.1053491E+00 -0.1563124E+00
  0.8907400E+01  0.4761110E+01 -0.2568960E-01  0.1817416E+00  0.2171538E+01  0.1027302E+00 -0.1499216E+00
  0.8397840E+01  0.5611260E+01 -0.2568960E-01  0.1730860E+00  0.2182179E+01  0.9935148E-01 -0.1417323E+00
  0.7807410E+01  0.6407370E+01 -0.2568960E-01  0.1624738E+00  0.2197743E+01  0.9531923E-01 -0.1315750E+00
  0.7141780E+01  0.7141780E+01 -0.2568960E-01  0.1503977E+00  0.2219531E+01  0.9086701E-01 -0.1198443E+00
  0.6407370E+01  0.7807410E+01 -0.2568960E-01  0.1363274E+00  0.2253570E+01  0.8601540E-01 -0.1057663E+00
  0.5611260E+01  0.8397840E+01 -0.2568960E-01  0.1211056E+00  0.2302465E+01  0.8091213E-01 -0.9010994E-01
  0.4761110E+01  0.8907410E+01 -0.2568960E-01  0.1051407E+00  0.2375732E+01  0.7578395E-01 -0.7287904E-01
  0.3865100E+01  0.9331180E+01 -0.2568960E-01  0.8942052E-01  0.2485665E+01  0.7086422E-01 -0.5453707E-01
  0.2931870E+01  0.9665100E+01 -0.2568960E-01  0.7475720E-01  0.2660381E+01  0.6626737E-01 -0.3460167E-01
  0.1970410E+01  0.9905930E+01 -0.2568960E-01  0.6351500E-01  0.2925995E+01  0.6204455E-01 -0.1358785E-01
  0.9899730E+00  0.1005140E+02 -0.2568960E-01  0.5899928E-01 -0.3000929E+01  0.5841655E-01  0.8271711E-02
 -0.4414850E-06  0.1010000E+02 -0.2568960E-01  0.6331953E-01 -0.2638762E+01  0.5548195E-01  0.3051419E-01
 -0.9899740E+00  0.1005140E+02 -0.2568960E-01  0.7539544E-01 -0.2357351E+01  0.5337426E-01  0.5325093E-01
 -0.1970410E+01  0.9905930E+01 -0.2568960E-01  0.9234155E-01 -0.2169345E+01  0.5202929E-01  0.7628836E-01
 -0.2931880E+01  0.9665100E+01 -0.2568960E-01  0.1118140E+00 -0.2049746E+01  0.5152920E-01  0.9923261E-01
 -0.3865100E+01  0.9331180E+01 -0.2568960E-01  0.1322634E+00 -0.1973109E+01  0.5178738E-01  0.1217032E+00
 -0.4761110E+01  0.8907400E+01 -0.2568960E-01  0.1528765E+00 -0.1923931E+01  0.5287098E-01  0.1434430E+00
 -0.5611260E+01  0.8397840E+01 -0.2568960E-01  0.1734718E+00 -0.1891276E+01  0.5464742E-01  0.1646394E+00
 -0.6407370E+01  0.7807410E+01 -0.2568960E-01  0.1934103E+00 -0.1870040E+01  0.5701683E-01  0.1848151E+00
 -0.7141780E+01  0.7141780E+01 -0.2568960E-01  0.2123761E+00 -0.1856072E+01  0.5976738E-01  0.2037927E+00
 -0.7807410E+01  0.6407370E+01 -0.2568960E-01  0.2297614E+00 -0.1847937E+01  0.6286421E-01  0.2209941E+00
 -0.8397840E+01  0.5611260E+01 -0.2568960E-01  0.2460369E+00 -0.1843177E+01  0.6619012E-01  0.2369663E+00
 -0.8907410E+01  0.4761110E+01 -0.2568960E-01  0.2607087E+00 -0.1840781E+01  0.6953535E-01  0.2512645E+00
 -0.9331180E+01  0.3865100E+01 -0.2568960E-01  0.2737430E+00 -0.1839580E+01  0.7269487E-01  0.2639142E+00
 -0.9665100E+01  0.2931880E+01 -0.2568960E-01  0.2843399E+00 -0.1839757E+01  0.7555758E-01  0.2741172E+00
 -0.9905930E+01  0.1970410E+01 -0.2568960E-01  0.2932763E+00 -0.1840333E+01  0.7809512E-01  0.2826873E+00
 -0.1005140E+02  0.9899730E+00 -0.2568960E-01  0.3001297E+00 -0.1841004E+01  0.8011424E-01  0.2892396E+00
 -0.1010000E+02 -0.8829700E-06 -0.2568960E-01  0.3050813E+00 -0.1841363E+01  0.8154134E-01  0.2939824E+00
 -0.1005140E+02 -0.9899740E+00 -0.2568960E-01  0.3071989E+00 -0.1841861E+01  0.8225468E-01  0.2959820E+00
 -0.9905930E+01 -0.1970410E+01 -0.2568960E-01  0.3074112E+00 -0.1841917E+01  0.8232833E-01  0.2961819E+00
 -0.9665100E+01 -0.2931880E+01 -0.2568960E-01  0.3054107E+00 -0.1841601E+01  0.8169937E-01  0.2942804E+00
 -0.9331180E+01 -0.3865100E+01 -0.2568960E-01  0.3015278E+00 -0.1840917E+01  0.8046213E-01  0.2905940E+00
 -0.8907400E+01 -0.4761110E+01 -0.2568960E-01  0.2948593E+00 -0.1840493E+01  0.7856205E-01  0.2842006E+00
 -0.8397840E+01 -0.5611260E+01 -0.2568960E-01  0.2863128E+00 -0.1839908E+01  0.7612336E-01  0.2760077E+00
 -0.7807400E+01 -0.6407370E+01 -0.2568960E-01  0.2757536E+00 -0.1839676E+01  0.7325435E-01  0.2658456E+00
 -0.7141780E+01 -0.7141780E+01 -0.2568960E-01  0.2636173E+00 -0.1840189E+01  0.7016071E-01  0.2541094E+00
 -0.6407370E+01 -0.7807410E+01 -0.2568960E-01  0.2491733E+00 -0.1842586E+01  0.6689207E-01  0.2400267E+00
 -0.5611260E+01 -0.8397850E+01 -0.2568960E-01  0.2331910E+00 -0.1846809E+01  0.6354962E-01  0.2243647E+00
 -0.4761110E+01 -0.8907410E+01 -0.2568960E-01  0.2157409E+00 -0.1854311E+01  0.6034953E-01  0.2071282E+00
 -0.3865100E+01 -0.9331190E+01 -0.2568960E-01  0.1973411E+00 -0.1866411E+01  0.5749099E-01  0.1887811E+00
 -0.2931870E+01 -0.9665100E+01 -0.2568960E-01  0.1776051E+00 -0.1886242E+01  0.5510014E-01  0.1688417E+00
 -0.1970410E+01 -0.9905930E+01 -0.2568960E-01  0.1571027E+00 -0.1916201E+01  0.5319149E-01  0.1478240E+00
 -0.9899710E+00 -0.1005140E+02 -0.2568960E-01  0.1362585E+00 -0.1962057E+01  0.5196277E-01  0.1259613E+00
  0.1204410E-06 -0.1010000E+02 -0.2568960E-01  0.1157889E+00 -0.2031507E+01  0.5147802E-01  0.1037163E+00
  0.9899760E+00 -0.1005140E+02 -0.2568960E-01  0.9616344E-01 -0.2140434E+01  0.5186350E-01  0.8097892E-01
  0.1970410E+01 -0.9905930E+01 -0.2568960E-01  0.7854776E-01 -0.2311994E+01  0.5303324E-01  0.5794157E-01
  0.2931880E+01 -0.9665100E+01 -0.2568960E-01  0.6522352E-01 -0.2575202E+01  0.5503842E-01  0.3499829E-01
  0.3865100E+01 -0.9331180E+01 -0.2568960E-01  0.5910549E-01 -0.2927990E+01  0.5776223E-01  0.1252931E-01
  0.4761110E+01 -0.8907410E+01 -0.2568960E-01  0.6193476E-01  0.2992386E+01  0.6124662E-01 -0.9206827E-02
  0.5611260E+01 -0.8397840E+01 -0.2568960E-01  0.7207979E-01  0.2706220E+01  0.6535568E-01 -0.3039954E-01
  0.6407370E+01 -0.7807410E+01 -0.2568960E-01  0.8631959E-01  0.2515658E+01  0.6995478E-01 -0.5057075E-01
  0.7141780E+01 -0.7141780E+01 -0.2568960E-01  0.1021424E+00  0.2392668E+01  0.7481131E-01 -0.6954379E-01
  0.7807410E+01 -0.6407370E+01 -0.2568960E-01  0.1178979E+00  0.2314869E+01  0.7985108E-01 -0.8673939E-01
  0.8397840E+01 -0.5611260E+01 -0.2568960E-01  0.1332998E+00  0.2261983E+01  0.8497223E-01 -0.1027062E+00
  0.8907410E+01 -0.4761110E+01 -0.2568960E-01  0.1475690E+00  0.2226133E+01  0.8993239E-01 -0.1169991E+00
  0.9331180E+01 -0.3865100E+01 -0.2568960E-01  0.1604405E+00  0.2200756E+01  0.9451741E-01 -0.1296441E+00
  0.9665100E+01 -0.2931870E+01 -0.2568960E-01  0.1710903E+00  0.2184776E+01  0.9856938E-01 -0.1398426E+00
  0.9905930E+01 -0.1970410E+01 -0.2568960E-01  0.1801327E+00  0.2173362E+01  0.1020916E+00 -0.1484085E+00
  0.1005140E+02 -0.9899690E+00 -0.2568960E-01  0.1871058E+00  0.2165736E+01  0.1048650E+00 -0.1549577E+00
  0.1010000E+02  0.0000000E+00 -0.1027320E+00  0.1918133E+00  0.2160178E+01  0.1066189E+00 -0.1594514E+00
  0.1005140E+02  0.9899730E+00 -0.1027320E+00  0.1939580E+00  0.2158713E+01  0.1075746E+00 -0.1613921E+00
  0.9905930E+01  0.1970410E+01 -0.1027320E+00  0.1940996E+00  0.2158735E+01  0.1076567E+00 -0.1615076E+00
  0.9665100E+01  0.2931880E+01 -0.1027320E+00  0.1921290E+00  0.2160360E+01  0.1068233E+00 -0.1596944E+00
  0.9331180E+01  0.3865100E+01 -0.1027320E+00  0.1881882E+00  0.2163671E+01  0.1051497E+00 -0.1560716E+00
  0.8907400E+01  0.4761110E+01 -0.1027320E+00  0.1813948E+00  0.2171483E+01  0.1025260E+00 -0.1496412E+00
  0.8397840E+01  0.5611260E+01 -0.1027320E+00  0.1726855E+00  0.2182321E+01  0.9914166E-01 -0.1413903E+00
  0.7807410E+01  0.6407370E+01 -0.1027320E+00  0.1621607E+00  0.2197672E+01  0.9512631E-01 -0.1313282E+00
  0.7141780E+01  0.7141780E+01 -0.1027320E+00  0.1501477E+00  0.2219286E+01  0.9068676E-01 -0.1196672E+00
  0.6407370E+01  0.7807410E+01 -0.1027320E+00  0.1360680E+00  0.2253463E+01  0.8584039E-01 -0.1055743E+00
  0.5611260E+01  0.8397840E+01 -0.1027320E+00  0.1208285E+00  0.2302657E+01  0.8074427E-01 -0.8988819E-01
  0.4761110E+01  0.8907410E+01 -0.1027320E+00  0.1049343E+00  0.2375588E+01  0.7562470E-01 -0.7274695E-01
  0.3865100E+01  0.9331180E+01 -0.1027320E+00  0.8926022E-01  0.2485183E+01  0.7071093E-01 -0.5447340E-01
  0.2931870E+01  0.9665100E+01 -0.1027320E+00  0.7460857E-01  0.2660118E+01  0.6612653E-01 -0.3455026E-01
  0.1970410E+01  0.9905930E+01 -0.1027320E+00  0.6338382E-01  0.2926245E+01  0.6191979E-01 -0.1354427E-01
  0.9899730E+00  0.1005140E+02 -0.1027320E+00  0.5886866E-01 -0.3001063E+01  0.5828833E-01  0.8245607E-02
 -0.4414850E-06  0.1010000E+02 -0.1027320E+00  0.6316517E-01 -0.2638896E+01  0.5535077E-01  0.3043239E-01
 -0.9899740E+00  0.1005140E+02 -0.1027320E+00  0.7522644E-01 -0.2357380E+01  0.5325614E-01  0.5313004E-01
 -0.1970410E+01  0.9905930E+01 -0.1027320E+00  0.9214713E-01 -0.2169441E+01  0.5192707E-01  0.7612275E-01
 -0.2931880E+01  0.9665100E+01 -0.1027320E+00  0.1115807E+00 -0.2049680E+01  0.5141510E-01  0.9902900E-01
 -0.3865100E+01  0.9331180E+01 -0.1027320E+00  0.1319966E+00 -0.1972956E+01  0.5166433E-01  0.1214657E+00
 -0.4761110E+01  0.8907400E+01 -0.1027320E+00  0.1525582E+00 -0.1923891E+01  0.5275505E-01  0.1431464E+00
 -0.5611260E+01  0.8397840E+01 -0.1027320E+00  0.1730850E+00 -0.1891357E+01  0.5453890E-01  0.1642679E+00
 -0.6407370E+01  0.7807410E+01 -0.1027320E+00  0.1930195E+00 -0.1870010E+01  0.5689615E-01  0.1844433E+00
 -0.7141780E+01  0.7141780E+01 -0.1027320E+00  0.2119765E+00 -0.1855990E+01  0.5963825E-01  0.2034142E+00
 -0.7807410E+01  0.6407370E+01 -0.1027320E+00  0.2292944E+00 -0.1847922E+01  0.6273313E-01  0.2205459E+00
 -0.8397840E+01  0.5611260E+01 -0.1027320E+00  0.2454807E+00 -0.1843238E+01  0.6605495E-01  0.2364266E+00
 -0.8907410E+01  0.4761110E+01 -0.1027320E+00  0.2601863E+00 -0.1840779E+01  0.6939556E-01  0.2507612E+00
 -0.9331180E+01  0.3865100E+01 -0.1027320E+00  0.2732393E+00 -0.1839548E+01  0.7255262E-01  0.2634308E+00
 -0.9665100E+01  0.2931880E+01 -0.1027320E+00  0.2837681E+00 -0.1839761E+01  0.7540670E-01  0.2735657E+00
 -0.9905930E+01  0.1970410E+01 -0.1027320E+00  0.2926100E+00 -0.1840386E+01  0.7793260E-01  0.2820410E+00
 -0.1005140E+02  0.9899730E+00 -0.1027320E+00  0.2995288E+00 -0.1841017E+01  0.7995740E-01  0.2886595E+00
 -0.1010000E+02 -0.8829700E-06 -0.1027320E+00  0.3045245E+00 -0.1841354E+01  0.8138976E-01  0.2934465E+00
 -0.1005140E+02 -0.9899740E+00 -0.1027320E+00  0.3065840E+00 -0.1841874E+01  0.8209392E-01  0.2953885E+00
 -0.9905930E+01 -0.1970410E+01 -0.1027320E+00  0.3067118E+00 -0.1841968E+01  0.8215591E-01  0.2955039E+00
 -0.9665100E+01 -0.2931880E+01 -0.1027320E+00  0.3047983E+00 -0.1841614E+01  0.8153935E-01  0.2936892E+00
 -0.9331180E+01 -0.3865100E+01 -0.1027320E+00  0.3009771E+00 -0.1840905E+01  0.8031159E-01  0.2900642E+00
 -0.8907400E+01 -0.4761110E+01 -0.1027320E+00  0.2942693E+00 -0.1840503E+01  0.7840763E-01  0.2836312E+00
 -0.8397840E+01 -0.5611260E+01 -0.1027320E+00  0.2856623E+00 -0.1839962E+01  0.7596532E-01  0.2753765E+00
 -0.7807400E+01 -0.6407370E+01 -0.1027320E+00  0.2751982E+00 -0.1839677E+01  0.7310703E-01  0.2653100E+00
 -0.7141780E+01 -0.7141780E+01 -0.1027320E+00  0.2631313E+00 -0.1840148E+01  0.7002104E-01  0.2536437E+00
 -0.6407370E+01 -0.7807410E+01 -0.1027320E+00  0.2486735E+00 -0.1842579E+01  0.6675629E-01  0.2395456E+00
 -0.5611260E+01 -0.8397850E+01 -0.1027320E+00  0.2326645E+00 -0.1846874E+01  0.6342056E-01  0.2238539E+00
 -0.4761110E+01 -0.8907410E+01 -0.1027320E+00  0.2153017E+00 -0.1854290E+01  0.6022229E-01  0.2067078E+00
 -0.3865100E+01 -0.9331190E+01 -0.1027320E+00  0.1969665E+00 -0.1866316E+01  0.5736393E-01  0.1884282E+00
 -0.2931870E+01 -0.9665100E+01 -0.1027320E+00  0.1772449E+00 -0.1886204E+01  0.5498211E-01  0.1685014E+00
 -0.1970410E+01 -0.9905930E+01 -0.1027320E+00  0.1567544E+00 -0.1916289E+01  0.5308645E-01  0.1474916E+00
 -0.9899710E+00 -0.1005140E+02 -0.1027320E+00  0.1359720E+00 -0.1962013E+01  0.5184794E-01  0.1256988E+00
  0.1204410E-06 -0.1010000E+02 -0.1027320E+00  0.1155486E+00 -0.2031347E+01  0.5135459E-01  0.1035094E+00
  0.9899760E+00 -0.1005140E+02 -0.1027320E+00  0.9595997E-01 -0.2140366E+01  0.5174830E-01  0.8081107E-01
  0.1970410E+01 -0.9905930E+01 -0.1027320E+00  0.7838645E-01 -0.2312071E+01  0.5292877E-01  0.5781852E-01
  0.2931880E+01 -0.9665100E+01 -0.1027320E+00  0.6507567E-01 -0.2575306E+01  0.5491731E-01  0.3491321E-01
  0.3865100E+01 -0.9331180E+01 -0.1027320E+00  0.5896290E-01 -0.2928355E+01  0.5762744E-01  0.1247804E-01
  0.4761110E+01 -0.8907410E+01 -0.1027320E+00  0.6180168E-01  0.2992192E+01  0.6111323E-01 -0.9198911E-02
  0.5611260E+01 -0.8397840E+01 -0.1027320E+00  0.7192502E-01  0.2706486E+01  0.6522343E-01 -0.3031688E-01
  0.6407370E+01 -0.7807410E+01 -0.1027320E+00  0.8615172E-01  0.2515436E+01  0.6980751E-01 -0.5048792E-01
  0.7141780E+01 -0.7141780E+01 -0.1027320E+00  0.1019650E+00  0.2392253E+01  0.7465254E-01 -0.6945407E-01
  0.7807410E+01 -0.6407370E+01 -0.1027320E+00  0.1176682E+00  0.2314746E+01  0.7968477E-01 -0.8658021E-01
  0.8397840E+01 -0.5611260E+01 -0.1027320E+00  0.1329935E+00  0.2262160E+01  0.8479517E-01 -0.1024552E+00
  0.8907410E+01 -0.4761110E+01 -0.1027320E+00  0.1472882E+00  0.2226041E+01  0.8975054E-01 -0.1167846E+00
  0.9331180E+01 -0.3865100E+01 -0.1027320E+00  0.1601745E+00  0.2200536E+01  0.9433232E-01 -0.1294500E+00
  0.9665100E+01 -0.2931870E+01 -0.1027320E+00  0.1707610E+00  0.2184715E+01  0.9837104E-01 -0.1395795E+00
  0.9905930E+01 -0.1970410E+01 -0.1027320E+00  0.1797157E+00  0.2173499E+01  0.1018757E+00 -0.1480509E+00
  0.1005140E+02 -0.9899690E+00 -0.1027320E+00  0.1867484E+00  0.2165686E+01  0.1046570E+00 -0.1546669E+00
  0.1010000E+02  0.0000000E+00 -0.2310450E+00  0.1912197E+00  0.2160060E+01  0.1062701E+00 -0.1589705E+00
  0.1005140E+02  0.9899730E+00 -0.2310450E+00  0.1933286E+00  0.2158657E+01  0.1072166E+00 -0.1608743E+00
  0.9905930E+01  0.1970410E+01 -0.2310450E+00  0.1934937E+00  0.2158630E+01  0.1073039E+00 -0.1610146E+00
  0.9665100E+01  0.2931880E+01 -0.2310450E+00  0.1915051E+00  0.2160302E+01  0.1064673E+00 -0.1591820E+00
  0.9331180E+01  0.3865100E+01 -0.2310450E+00  0.1876054E+00  0.2163550E+01  0.1048053E+00 -0.1556010E+00
  0.8907400E+01  0.4761110E+01 -0.2310450E+00  0.1808083E+00  0.2171416E+01  0.1021844E+00 -0.1491643E+00
  0.8397840E+01  0.5611260E+01 -0.2310450E+00  0.1721466E+00  0.2182189E+01  0.9881360E-01 -0.1409622E+00
  0.7807410E+01  0.6407370E+01 -0.2310450E+00  0.1616333E+00  0.2197590E+01  0.9480615E-01 -0.1309088E+00
  0.7141780E+01  0.7141780E+01 -0.2310450E+00  0.1496831E+00  0.2219100E+01  0.9038389E-01 -0.1193138E+00
  0.6407370E+01  0.7807410E+01 -0.2310450E+00  0.1356304E+00  0.2253340E+01  0.8555144E-01 -0.1052452E+00
  0.5611260E+01  0.8397840E+01 -0.2310450E+00  0.1204504E+00  0.2302420E+01  0.8047037E-01 -0.8962605E-01
  0.4761110E+01  0.8907410E+01 -0.2310450E+00  0.1045908E+00  0.2375428E+01  0.7536552E-01 -0.7252080E-01
  0.3865100E+01  0.9331180E+01 -0.2310450E+00  0.8897729E-01  0.2484800E+01  0.7046599E-01 -0.5432774E-01
  0.2931870E+01  0.9665100E+01 -0.2310450E+00  0.7436438E-01  0.2659806E+01  0.6589936E-01 -0.3445774E-01
  0.1970410E+01  0.9905930E+01 -0.2310450E+00  0.6316712E-01  0.2925779E+01  0.6170181E-01 -0.1352675E-01
  0.9899730E+00  0.1005140E+02 -0.2310450E+00  0.5866098E-01 -0.3001276E+01  0.5808445E-01  0.8204157E-02
 -0.4414850E-06  0.1010000E+02 -0.2310450E+00  0.6293092E-01 -0.2639098E+01  0.5515163E-01  0.3030838E-01
 -0.9899740E+00  0.1005140E+02 -0.2310450E+00  0.7495441E-01 -0.2357492E+01  0.5306952E-01  0.5293193E-01
 -0.1970410E+01  0.9905930E+01 -0.2310450E+00  0.9181968E-01 -0.2169414E+01  0.5174046E-01  0.7585367E-01
 -0.2931880E+01  0.9665100E+01 -0.2310450E+00  0.1111945E+00 -0.2049659E+01  0.5123511E-01  0.9868724E-01
 -0.3865100E+01  0.9331180E+01 -0.2310450E+00  0.1315443E+00 -0.1972883E+01  0.5147853E-01  0.1210532E+00
 -0.4761110E+01  0.8907400E+01 -0.2310450E+00  0.1520292E+00 -0.1923884E+01  0.5257112E-01  0.1426505E+00
 -0.5611260E+01  0.8397840E+01 -0.2310450E+00  0.1725021E+00 -0.1891310E+01  0.5434749E-01  0.1637172E+00
 -0.6407370E+01  0.7807410E+01 -0.2310450E+00  0.1923650E+00 -0.1870002E+01  0.5670178E-01  0.1838184E+00
 -0.7141780E+01  0.7141780E+01 -0.2310450E+00  0.2112730E+00 -0.1855954E+01  0.5943295E-01  0.2027412E+00
 -0.7807410E+01  0.6407370E+01 -0.2310450E+00  0.2285135E+00 -0.1847924E+01  0.6251989E-01  0.2197946E+00
 -0.8397840E+01  0.5611260E+01 -0.2310450E+00  0.2446673E+00 -0.1843225E+01  0.6583305E-01  0.2356440E+00
 -0.8907410E+01  0.4761110E+01 -0.2310450E+00  0.2593095E+00 -0.1840791E+01  0.6916454E-01  0.2499154E+00
 -0.9331180E+01  0.3865100E+01 -0.2310450E+00  0.2723427E+00 -0.1839543E+01  0.7231329E-01  0.2625668E+00
 -0.9665100E+01  0.2931880E+01 -0.2310450E+00  0.2828086E+00 -0.1839777E+01  0.7515609E-01  0.2726395E+00
 -0.9905930E+01  0.1970410E+01 -0.2310450E+00  0.2916466E+00 -0.1840394E+01  0.7767829E-01  0.2811117E+00
 -0.1005140E+02  0.9899730E+00 -0.2310450E+00  0.2985206E+00 -0.1841039E+01  0.7969455E-01  0.2876862E+00
 -0.1010000E+02 -0.8829700E-06 -0.2310450E+00  0.3035282E+00 -0.1841365E+01  0.8112676E-01  0.2924856E+00
 -0.1005140E+02 -0.9899740E+00 -0.2310450E+00  0.3055509E+00 -0.1841897E+01  0.8182395E-01  0.2943912E+00
 -0.9905930E+01 -0.1970410E+01 -0.2310450E+00  0.3057034E+00 -0.1841982E+01  0.8189013E-01  0.2945311E+00
 -0.9665100E+01 -0.2931880E+01 -0.2310450E+00  0.3037711E+00 -0.1841635E+01  0.8127082E-01  0.2926977E+00
 -0.9331180E+01 -0.3865100E+01 -0.2310450E+00  0.2999922E+00 -0.1840914E+01  0.8005147E-01  0.2891143E+00
 -0.8907400E+01 -0.4761110E+01 -0.2310450E+00  0.2932785E+00 -0.1840523E+01  0.7814945E-01  0.2826747E+00
 -0.8397840E+01 -0.5611260E+01 -0.2310450E+00  0.2847212E+00 -0.1839966E+01  0.7571630E-01  0.2744690E+00
 -0.7807400E+01 -0.6407370E+01 -0.2310450E+00  0.2742668E+00 -0.1839690E+01  0.7286314E-01  0.2644111E+00
 -0.7141780E+01 -0.7141780E+01 -0.2310450E+00  0.2622663E+00 -0.1840139E+01  0.6978847E-01  0.2528106E+00
 -0.6407370E+01 -0.7807410E+01 -0.2310450E+00  0.2478345E+00 -0.1842588E+01  0.6653311E-01  0.2387368E+00
 -0.5611260E+01 -0.8397850E+01 -0.2310450E+00  0.2318924E+00 -0.1846854E+01  0.6320567E-01  0.2231123E+00
 -0.4761110E+01 -0.8907410E+01 -0.2310450E+00  0.2145662E+00 -0.1854290E+01  0.6001662E-01  0.2060017E+00
 -0.3865100E+01 -0.9331190E+01 -0.2310450E+00  0.1963104E+00 -0.1866271E+01  0.5716449E-01  0.1878031E+00
 -0.2931870E+01 -0.9665100E+01 -0.2310450E+00  0.1766425E+00 -0.1886193E+01  0.5479332E-01  0.1679294E+00
 -0.1970410E+01 -0.9905930E+01 -0.2310450E+00  0.1562230E+00 -0.1916235E+01  0.5289861E-01  0.1469945E+00
 -0.9899710E+00 -0.1005140E+02 -0.2310450E+00  0.1354978E+00 -0.1962008E+01  0.5166651E-01  0.1252606E+00
  0.1204410E-06 -0.1010000E+02 -0.2310450E+00  0.1151477E+00 -0.2031276E+01  0.5116907E-01  0.1031538E+00
  0.9899760E+00 -0.1005140E+02 -0.2310450E+00  0.9562518E-01 -0.2140352E+01  0.5156668E-01  0.8052982E-01
  0.1970410E+01 -0.9905930E+01 -0.2310450E+00  0.7810284E-01 -0.2312095E+01  0.5273867E-01  0.5760805E-01
  0.2931880E+01 -0.9665100E+01 -0.2310450E+00  0.6483987E-01 -0.2575512E+01  0.5472548E-01  0.3477544E-01
  0.3865100E+01 -0.9331180E+01 -0.2310450E+00  0.5874721E-01 -0.2928727E+01  0.5742126E-01  0.1241103E-01
  0.4761110E+01 -0.8907410E+01 -0.2310450E+00  0.6158863E-01  0.2991935E+01  0.6090020E-01 -0.9182832E-02
  0.5611260E+01 -0.8397840E+01 -0.2310450E+00  0.7168837E-01  0.2706048E+01  0.6499557E-01 -0.3024563E-01
  0.6407370E+01 -0.7807410E+01 -0.2310450E+00  0.8587299E-01  0.2515179E+01  0.6956875E-01 -0.5034242E-01
  0.7141780E+01 -0.7141780E+01 -0.2310450E+00  0.1016457E+00  0.2391927E+01  0.7439617E-01 -0.6926077E-01
  0.7807410E+01 -0.6407370E+01 -0.2310450E+00  0.1172840E+00  0.2314609E+01  0.7941280E-01 -0.8630840E-01
  0.8397840E+01 -0.5611260E+01 -0.2310450E+00  0.1325781E+00  0.2261955E+01  0.8450928E-01 -0.1021525E+00
  0.8907410E+01 -0.4761110E+01 -0.2310450E+00  0.1468138E+00  0.2225935E+01  0.8944917E-01 -0.1164180E+00
  0.9331180E+01 -0.3865100E+01 -0.2310450E+00  0.1596789E+00  0.2200369E+01  0.9401887E-01 -0.1290651E+00
  0.9665100E+01 -0.2931870E+01 -0.2310450E+00  0.1702059E+00  0.2184639E+01  0.9804080E-01 -0.1391332E+00
  0.9905930E+01 -0.1970410E+01 -0.2310450E+00  0.1791550E+00  0.2173377E+01  0.1015397E+00 -0.1476015E+00
  0.1005140E+02 -0.9899690E+00 -0.2310450E+00  0.1861439E+00  0.2165624E+01  0.1043087E+00 -0.1541728E+00
  0.1010000E+02  0.0000000E+00 -0.4105000E+00  0.1903381E+00  0.2159874E+01  0.1057509E+00 -0.1582573E+00
  0.1005140E+02  0.9899730E+00 -0.4105000E+00  0.1924921E+00  0.2158349E+01  0.1067033E+00 -0.1602112E+00
  0.9905930E+01  0.1970410E+01 -0.4105000E+00  0.1926233E+00  0.2158397E+01  0.1067837E+00 -0.1603152E+00
  0.9665100E+01  0.2931880E+01 -0.4105000E+00  0.1906762E+00  0.2159991E+01  0.1059571E+00 -0.1585260E+00
  0.9331180E+01  0.3865100E+01 -0.4105000E+00  0.1867404E+00  0.2163360E+01  0.1042926E+00 -0.1549033E+00
  0.8907400E+01  0.4761110E+01 -0.4105000E+00  0.1800283E+00  0.2171082E+01  0.1016941E+00 -0.1485547E+00
  0.8397840E+01  0.5611260E+01 -0.4105000E+00  0.1713722E+00  0.2181924E+01  0.9833194E-01 -0.1403541E+00
  0.7807410E+01  0.6407370E+01 -0.4105000E+00  0.1609301E+00  0.2197215E+01  0.9434477E-01 -0.1303747E+00
  0.7141780E+01  0.7141780E+01 -0.4105000E+00  0.1489925E+00  0.2218863E+01  0.8993869E-01 -0.1187847E+00
  0.6407370E+01  0.7807410E+01 -0.4105000E+00  0.1350444E+00  0.2252874E+01  0.8513299E-01 -0.1048302E+00
  0.5611260E+01  0.8397840E+01 -0.4105000E+00  0.1199048E+00  0.2302037E+01  0.8007170E-01 -0.8925065E-01
  0.4761110E+01  0.8907410E+01 -0.4105000E+00  0.1041238E+00  0.2374851E+01  0.7498737E-01 -0.7224033E-01
  0.3865100E+01  0.9331180E+01 -0.4105000E+00  0.8855945E-01  0.2484411E+01  0.7011402E-01 -0.5409990E-01
  0.2931870E+01  0.9665100E+01 -0.4105000E+00  0.7402079E-01  0.2658950E+01  0.6556552E-01 -0.3435462E-01
  0.1970410E+01  0.9905930E+01 -0.4105000E+00  0.6285467E-01  0.2925183E+01  0.6138857E-01 -0.1349644E-01
  0.9899730E+00  0.1005140E+02 -0.4105000E+00  0.5835169E-01 -0.3001759E+01  0.5778212E-01  0.8132987E-02
 -0.4414850E-06  0.1010000E+02 -0.4105000E+00  0.6260644E-01 -0.2639245E+01  0.5487169E-01  0.3014405E-01
 -0.9899740E+00  0.1005140E+02 -0.4105000E+00  0.7455992E-01 -0.2357508E+01  0.5279103E-01  0.5265253E-01
 -0.1970410E+01  0.9905930E+01 -0.4105000E+00  0.9135980E-01 -0.2169307E+01  0.5147330E-01  0.7547922E-01
 -0.2931880E+01  0.9665100E+01 -0.4105000E+00  0.1106565E+00 -0.2049438E+01  0.5096557E-01  0.9822109E-01
 -0.3865100E+01  0.9331180E+01 -0.4105000E+00  0.1309037E+00 -0.1972790E+01  0.5121659E-01  0.1204684E+00
 -0.4761110E+01  0.8907400E+01 -0.4105000E+00  0.1513045E+00 -0.1923709E+01  0.5229578E-01  0.1419796E+00
 -0.5611260E+01  0.8397840E+01 -0.4105000E+00  0.1716816E+00 -0.1891195E+01  0.5407025E-01  0.1629447E+00
 -0.6407370E+01  0.7807410E+01 -0.4105000E+00  0.1914780E+00 -0.1869851E+01  0.5641266E-01  0.1829794E+00
 -0.7141780E+01  0.7141780E+01 -0.4105000E+00  0.2102648E+00 -0.1855882E+01  0.5913481E-01  0.2017780E+00