 VARIABLES="X" "Y" "Z" "abs(eta) (m)" "angle(phi) (rad)" "PRE1" "PRE2"
ZONE N=   3200 ,E =    3136 ,F=FEPOINT,ET=QUADRILATERAL
  0.1100000E+02  0.0000000E+00  0.0000000E+00  0.3613675E+00 -0.1736680E+01  0.5967056E-01  0.3564069E+00
  0.1094700E+02  0.1078190E+01  0.0000000E+00  0.3820726E+00 -0.1738251E+01  0.6368130E-01  0.3767282E+00
  0.1078860E+02  0.2145990E+01  0.0000000E+00  0.4003421E+00 -0.1740800E+01  0.6773217E-01  0.3945708E+00
  0.1052630E+02  0.3193130E+01  0.0000000E+00  0.4163179E+00 -0.1743780E+01  0.7165752E-01  0.4101047E+00
  0.1016270E+02  0.4209520E+01  0.0000000E+00  0.4296780E+00 -0.1746866E+01  0.7526296E-01  0.4230350E+00
  0.9701130E+01  0.5185360E+01  0.0000000E+00  0.4397460E+00 -0.1749609E+01  0.7821401E-01  0.4327345E+00
  0.9146170E+01  0.6111270E+01  0.0000000E+00  0.4469742E+00 -0.1751704E+01  0.8042059E-01  0.4396800E+00
  0.8503110E+01  0.6978330E+01  0.0000000E+00  0.4516104E+00 -0.1753027E+01  0.8184236E-01  0.4441326E+00
  0.7778170E+01  0.7778170E+01  0.0000000E+00  0.4533594E+00 -0.1753510E+01  0.8237481E-01  0.4458129E+00
  0.6978330E+01  0.8503110E+01  0.0000000E+00  0.4516107E+00 -0.1753027E+01  0.8184239E-01  0.4441329E+00
  0.6111270E+01  0.9146170E+01  0.0000000E+00  0.4469741E+00 -0.1751704E+01  0.8042055E-01  0.4396798E+00
  0.5185360E+01  0.9701130E+01  0.0000000E+00  0.4397458E+00 -0.1749610E+01  0.7821400E-01  0.4327343E+00
  0.4209520E+01  0.1016270E+02  0.0000000E+00  0.4296777E+00 -0.1746866E+01  0.7526284E-01  0.4230348E+00
  0.3193130E+01  0.1052630E+02  0.0000000E+00  0.4163178E+00 -0.1743780E+01  0.7165749E-01  0.4101045E+00
  0.2145990E+01  0.1078860E+02  0.0000000E+00  0.4003417E+00 -0.1740800E+01  0.6773220E-01  0.3945704E+00
  0.1078190E+01  0.1094700E+02  0.0000000E+00  0.3820729E+00 -0.1738251E+01  0.6368125E-01  0.3767285E+00
 -0.4808250E-06  0.1100000E+02  0.0000000E+00  0.3613675E+00 -0.1736681E+01  0.5967061E-01  0.3564069E+00
 -0.1078190E+01  0.1094700E+02  0.0000000E+00  0.3380415E+00 -0.1737237E+01  0.5600442E-01  0.3333701E+00
 -0.2145990E+01  0.1078860E+02  0.0000000E+00  0.3128069E+00 -0.1741007E+01  0.5298638E-01  0.3082866E+00
 -0.3193130E+01  0.1052630E+02  0.0000000E+00  0.2860168E+00 -0.1749294E+01  0.5078253E-01  0.2814724E+00
 -0.4209520E+01  0.1016270E+02  0.0000000E+00  0.2577496E+00 -0.1764375E+01  0.4958373E-01  0.2529354E+00
 -0.5185370E+01  0.9701130E+01  0.0000000E+00  0.2282799E+00 -0.1790328E+01  0.4971318E-01  0.2228011E+00
 -0.6111270E+01  0.9146160E+01  0.0000000E+00  0.1984416E+00 -0.1832005E+01  0.5124718E-01  0.1917102E+00
 -0.6978330E+01  0.8503120E+01  0.0000000E+00  0.1689032E+00 -0.1897520E+01  0.5420816E-01  0.1599680E+00
 -0.7778170E+01  0.7778170E+01  0.0000000E+00  0.1406001E+00 -0.2001269E+01  0.5867246E-01  0.1277730E+00
 -0.8503120E+01  0.6978330E+01  0.0000000E+00  0.1154541E+00 -0.2166164E+01  0.6474818E-01  0.9558930E-01
 -0.9146170E+01  0.6111270E+01  0.0000000E+00  0.9640731E-01 -0.2417410E+01  0.7221304E-01  0.6387211E-01
 -0.9701130E+01  0.5185360E+01  0.0000000E+00  0.8731307E-01 -0.2756315E+01  0.8091249E-01  0.3281373E-01
 -0.1016270E+02  0.4209520E+01  0.0000000E+00  0.9077282E-01 -0.3111587E+01  0.9073196E-01  0.2723257E-02
 -0.1052630E+02  0.3193130E+01  0.0000000E+00  0.1046736E+00  0.2893023E+01  0.1014564E+00 -0.2575158E-01
 -0.1078860E+02  0.2145990E+01  0.0000000E+00  0.1243187E+00  0.2705639E+01  0.1126909E+00 -0.5249668E-01
 -0.1094700E+02  0.1078190E+01  0.0000000E+00  0.1463945E+00  0.2583623E+01  0.1241911E+00 -0.7751071E-01
 -0.1100000E+02 -0.9616510E-06  0.0000000E+00  0.1688493E+00  0.2504246E+01  0.1357004E+00 -0.1004764E+00
 -0.1094700E+02 -0.1078190E+01  0.0000000E+00  0.1900397E+00  0.2453286E+01  0.1467721E+00 -0.1207190E+00
 -0.1078860E+02 -0.2146000E+01  0.0000000E+00  0.2094129E+00  0.2419030E+01  0.1570834E+00 -0.1384867E+00
 -0.1052630E+02 -0.3193130E+01  0.0000000E+00  0.2267323E+00  0.2395167E+01  0.1664488E+00 -0.1539556E+00
 -0.1016270E+02 -0.4209520E+01  0.0000000E+00  0.2414900E+00  0.2378933E+01  0.1745977E+00 -0.1668325E+00
 -0.9701130E+01 -0.5185360E+01  0.0000000E+00  0.2528470E+00  0.2369033E+01  0.1810705E+00 -0.1764798E+00
 -0.9146160E+01 -0.6111270E+01  0.0000000E+00  0.2610715E+00  0.2362769E+01  0.1858151E+00 -0.1833879E+00
 -0.8503110E+01 -0.6978330E+01  0.0000000E+00  0.2663168E+00  0.2358815E+01  0.1888073E+00 -0.1878202E+00
 -0.7778170E+01 -0.7778180E+01  0.0000000E+00  0.2682697E+00  0.2357234E+01  0.1898925E+00 -0.1894979E+00
 -0.6978330E+01 -0.8503110E+01  0.0000000E+00  0.2663167E+00  0.2358816E+01  0.1888074E+00 -0.1878201E+00
 -0.6111270E+01 -0.9146170E+01  0.0000000E+00  0.2610713E+00  0.2362769E+01  0.1858149E+00 -0.1833876E+00
 -0.5185360E+01 -0.9701130E+01  0.0000000E+00  0.2528469E+00  0.2369033E+01  0.1810704E+00 -0.1764797E+00
 -0.4209510E+01 -0.1016270E+02  0.0000000E+00  0.2414899E+00  0.2378932E+01  0.1745974E+00 -0.1668327E+00
 -0.3193130E+01 -0.1052630E+02  0.0000000E+00  0.2267321E+00  0.2395167E+01  0.1664487E+00 -0.1539555E+00
 -0.2145990E+01 -0.1078860E+02  0.0000000E+00  0.2094127E+00  0.2419029E+01  0.1570832E+00 -0.1384866E+00
 -0.1078190E+01 -0.1094700E+02  0.0000000E+00  0.1900394E+00  0.2453287E+01  0.1467719E+00 -0.1207186E+00
  0.1311740E-06 -0.1100000E+02  0.0000000E+00  0.1688493E+00  0.2504247E+01  0.1357006E+00 -0.1004761E+00
  0.1078190E+01 -0.1094700E+02  0.0000000E+00  0.1463942E+00  0.2583625E+01  0.1241910E+00 -0.7751034E-01
  0.2145990E+01 -0.1078860E+02  0.0000000E+00  0.1243186E+00  0.2705641E+01  0.1126909E+00 -0.5249641E-01
  0.3193140E+01 -0.1052630E+02  0.0000000E+00  0.1046733E+00  0.2893027E+01  0.1014564E+00 -0.2575107E-01
  0.4209520E+01 -0.1016270E+02  0.0000000E+00  0.9077305E-01 -0.3111586E+01  0.9073219E-01  0.2723419E-02
  0.5185360E+01 -0.9701130E+01  0.0000000E+00  0.8731317E-01 -0.2756314E+01  0.8091258E-01  0.3281378E-01
  0.6111270E+01 -0.9146160E+01  0.0000000E+00  0.9640735E-01 -0.2417407E+01  0.7221287E-01  0.6387235E-01
  0.6978330E+01 -0.8503110E+01  0.0000000E+00  0.1154543E+00 -0.2166162E+01  0.6474806E-01  0.9558967E-01
  0.7778180E+01 -0.7778170E+01  0.0000000E+00  0.1406005E+00 -0.2001268E+01  0.5867245E-01  0.1277734E+00
  0.8503120E+01 -0.6978320E+01  0.0000000E+00  0.1689037E+00 -0.1897519E+01  0.5420805E-01  0.1599686E+00
  0.9146170E+01 -0.6111270E+01  0.0000000E+00  0.1984417E+00 -0.1832004E+01  0.5124712E-01  0.1917103E+00
  0.9701130E+01 -0.5185360E+01  0.0000000E+00  0.2282803E+00 -0.1790329E+01  0.4971334E-01  0.2228014E+00
  0.1016270E+02 -0.4209520E+01  0.0000000E+00  0.2577497E+00 -0.1764375E+01  0.4958371E-01  0.2529355E+00
  0.1052630E+02 -0.3193130E+01  0.0000000E+00  0.2860168E+00 -0.1749294E+01  0.5078254E-01  0.2814724E+00
  0.1078860E+02 -0.2145990E+01  0.0000000E+00  0.3128071E+00 -0.1741007E+01  0.5298644E-01  0.3082868E+00
  0.1094700E+02 -0.1078180E+01  0.0000000E+00  0.3380417E+00 -0.1737237E+01  0.5600452E-01  0.3333701E+00
  0.1100000E+02  0.0000000E+00 -0.2568960E-01  0.3609458E+00 -0.1736706E+01  0.5960990E-01  0.3559895E+00
  0.1094700E+02  0.1078190E+01 -0.2568960E-01  0.3816231E+00 -0.1738278E+01  0.6361664E-01  0.3762833E+00
  0.1078860E+02  0.2145990E+01 -0.2568960E-01  0.3998749E+00 -0.1740832E+01  0.6766586E-01  0.3941081E+00
  0.1052630E+02  0.3193130E+01 -0.2568960E-01  0.4158280E+00 -0.1743816E+01  0.7158822E-01  0.4096195E+00
  0.1016270E+02  0.4209520E+01 -0.2568960E-01  0.4291732E+00 -0.1746903E+01  0.7519036E-01  0.4225353E+00
  0.9701130E+01  0.5185360E+01 -0.2568960E-01  0.4392264E+00 -0.1749648E+01  0.7813811E-01  0.4322202E+00
  0.9146170E+01  0.6111270E+01 -0.2568960E-01  0.4464501E+00 -0.1751745E+01  0.8034434E-01  0.4391612E+00
  0.8503110E+01  0.6978330E+01 -0.2568960E-01  0.4510767E+00 -0.1753069E+01  0.8176427E-01  0.4436044E+00
  0.7778170E+01  0.7778170E+01 -0.2568960E-01  0.4528268E+00 -0.1753552E+01  0.8229663E-01  0.4452857E+00
  0.6978330E+01  0.8503110E+01 -0.2568960E-01  0.4510768E+00 -0.1753069E+01  0.8176427E-01  0.4436044E+00
  0.6111270E+01  0.9146170E+01 -0.2568960E-01  0.4464502E+00 -0.1751745E+01  0.8034437E-01  0.4391612E+00
  0.5185360E+01  0.9701130E+01 -0.2568960E-01  0.4392264E+00 -0.1749647E+01  0.7813800E-01  0.4322202E+00
  0.4209520E+01  0.1016270E+02 -0.2568960E-01  0.4291735E+00 -0.1746903E+01  0.7519029E-01  0.4225356E+00
  0.3193130E+01  0.1052630E+02 -0.2568960E-01  0.4158276E+00 -0.1743817E+01  0.7158834E-01  0.4096190E+00
  0.2145990E+01  0.1078860E+02 -0.2568960E-01  0.3998747E+00 -0.1740832E+01  0.6766586E-01  0.3941079E+00
  0.1078190E+01  0.1094700E+02 -0.2568960E-01  0.3816234E+00 -0.1738278E+01  0.6361663E-01  0.3762836E+00
 -0.4808250E-06  0.1100000E+02 -0.2568960E-01  0.3609459E+00 -0.1736706E+01  0.5960998E-01  0.3559896E+00
 -0.1078190E+01  0.1094700E+02 -0.2568960E-01  0.3376476E+00 -0.1737261E+01  0.5594724E-01  0.3329802E+00
 -0.2145990E+01  0.1078860E+02 -0.2568960E-01  0.3124444E+00 -0.1741023E+01  0.5292996E-01  0.3079284E+00
 -0.3193130E+01  0.1052630E+02 -0.2568960E-01  0.2856819E+00 -0.1749306E+01  0.5072669E-01  0.2811423E+00
 -0.4209520E+01  0.1016270E+02 -0.2568960E-01  0.2574518E+00 -0.1764382E+01  0.4952820E-01  0.2526428E+00
 -0.5185370E+01  0.9701130E+01 -0.2568960E-01  0.2280184E+00 -0.1790335E+01  0.4965763E-01  0.2225455E+00
 -0.6111270E+01  0.9146160E+01 -0.2568960E-01  0.1982138E+00 -0.1832001E+01  0.5118762E-01  0.1914903E+00
 -0.6978330E+01  0.8503120E+01 -0.2568960E-01  0.1687081E+00 -0.1897519E+01  0.5414536E-01  0.1597833E+00
 -0.7778170E+01  0.7778170E+01 -0.2568960E-01  0.1404407E+00 -0.2001253E+01  0.5860392E-01  0.1276291E+00
 -0.8503120E+01  0.6978330E+01 -0.2568960E-01  0.1153263E+00 -0.2166127E+01  0.6467300E-01  0.9548593E-01
 -0.9146170E+01  0.6111270E+01 -0.2568960E-01  0.9629915E-01 -0.2417368E+01  0.7212935E-01  0.6380346E-01
 -0.9701130E+01  0.5185360E+01 -0.2568960E-01  0.8721613E-01 -0.2756269E+01  0.8082118E-01  0.3278094E-01
 -0.1016270E+02  0.4209520E+01 -0.2568960E-01  0.9067023E-01 -0.3111503E+01  0.9062918E-01  0.2727851E-02
 -0.1052630E+02  0.3193130E+01 -0.2568960E-01  0.1045522E+00  0.2893142E+01  0.1013418E+00 -0.2570969E-01
 -0.1078860E+02  0.2145990E+01 -0.2568960E-01  0.1241757E+00  0.2705723E+01  0.1125657E+00 -0.5242688E-01
 -0.1094700E+02  0.1078190E+01 -0.2568960E-01  0.1462259E+00  0.2583719E+01  0.1240555E+00 -0.7740958E-01
 -0.1100000E+02 -0.9616510E-06 -0.2568960E-01  0.1686533E+00  0.2504337E+01  0.1355520E+00 -0.1003473E+00
 -0.1094700E+02 -0.1078190E+01 -0.2568960E-01  0.1898159E+00  0.2453386E+01  0.1466111E+00 -0.1205622E+00
 -0.1078860E+02 -0.2146000E+01 -0.2568960E-01  0.2091709E+00  0.2419118E+01  0.1569141E+00 -0.1383129E+00
 -0.1052630E+02 -0.3193130E+01 -0.2568960E-01  0.2264682E+00  0.2395266E+01  0.1662702E+00 -0.1537598E+00
 -0.1016270E+02 -0.4209520E+01 -0.2568960E-01  0.2412092E+00  0.2379029E+01  0.1744105E+00 -0.1666219E+00
 -0.9701130E+01 -0.5185360E+01 -0.2568960E-01  0.2525503E+00  0.2369133E+01  0.1808756E+00 -0.1762545E+00
 -0.9146160E+01 -0.6111270E+01 -0.2568960E-01  0.2607698E+00  0.2362863E+01  0.1856175E+00 -0.1831584E+00
 -0.8503110E+01 -0.6978330E+01 -0.2568960E-01  0.2660053E+00  0.2358917E+01  0.1886056E+00 -0.1875813E+00
 -0.7778170E+01 -0.7778180E+01 -0.2568960E-01  0.2679575E+00  0.2357333E+01  0.1896901E+00 -0.1892588E+00
 -0.6978330E+01 -0.8503110E+01 -0.2568960E-01  0.2660052E+00  0.2358918E+01  0.1886056E+00 -0.1875812E+00
 -0.6111270E+01 -0.9146170E+01 -0.2568960E-01  0.2607695E+00  0.2362864E+01  0.1856175E+00 -0.1831581E+00
 -0.5185360E+01 -0.9701130E+01 -0.2568960E-01  0.2525505E+00  0.2369134E+01  0.1808758E+00 -0.1762546E+00
 -0.4209510E+01 -0.1016270E+02 -0.2568960E-01  0.2412091E+00  0.2379028E+01  0.1744104E+00 -0.1666220E+00
 -0.3193130E+01 -0.1052630E+02 -0.2568960E-01  0.2264681E+00  0.2395266E+01  0.1662702E+00 -0.1537597E+00
 -0.2145990E+01 -0.1078860E+02 -0.2568960E-01  0.2091705E+00  0.2419120E+01  0.1569140E+00 -0.1383123E+00
 -0.1078190E+01 -0.1094700E+02 -0.2568960E-01  0.1898156E+00  0.2453386E+01  0.1466110E+00 -0.1205619E+00
  0.1311740E-06 -0.1100000E+02 -0.2568960E-01  0.1686530E+00  0.2504338E+01  0.1355518E+00 -0.1003471E+00
  0.1078190E+01 -0.1094700E+02 -0.2568960E-01  0.1462260E+00  0.2583720E+01  0.1240557E+00 -0.7740950E-01
  0.2145990E+01 -0.1078860E+02 -0.2568960E-01  0.1241756E+00  0.2705724E+01  0.1125657E+00 -0.5242665E-01
  0.3193140E+01 -0.1052630E+02 -0.2568960E-01  0.1045520E+00  0.2893144E+01  0.1013417E+00 -0.2570936E-01
  0.4209520E+01 -0.1016270E+02 -0.2568960E-01  0.9067024E-01 -0.3111501E+01  0.9062919E-01  0.2728059E-02
  0.5185360E+01 -0.9701130E+01 -0.2568960E-01  0.8721616E-01 -0.2756267E+01  0.8082113E-01  0.3278115E-01
  0.6111270E+01 -0.9146160E+01 -0.2568960E-01  0.9629942E-01 -0.2417365E+01  0.7212934E-01  0.6380390E-01
  0.6978330E+01 -0.8503110E+01 -0.2568960E-01  0.1153265E+00 -0.2166126E+01  0.6467301E-01  0.9548619E-01
  0.7778180E+01 -0.7778170E+01 -0.2568960E-01  0.1404410E+00 -0.2001250E+01  0.5860370E-01  0.1276295E+00
  0.8503120E+01 -0.6978320E+01 -0.2568960E-01  0.1687085E+00 -0.1897518E+01  0.5414533E-01  0.1597837E+00
  0.9146170E+01 -0.6111270E+01 -0.2568960E-01  0.1982138E+00 -0.1832000E+01  0.5118741E-01  0.1914904E+00
  0.9701130E+01 -0.5185360E+01 -0.2568960E-01  0.2280189E+00 -0.1790335E+01  0.4965775E-01  0.2225460E+00
  0.1016270E+02 -0.4209520E+01 -0.2568960E-01  0.2574517E+00 -0.1764382E+01  0.4952824E-01  0.2526428E+00
  0.1052630E+02 -0.3193130E+01 -0.2568960E-01  0.2856822E+00 -0.1749306E+01  0.5072673E-01  0.2811426E+00
  0.1078860E+02 -0.2145990E+01 -0.2568960E-01  0.3124443E+00 -0.1741023E+01  0.5292990E-01  0.3079283E+00
  0.1094700E+02 -0.1078180E+01 -0.2568960E-01  0.3376481E+00 -0.1737261E+01  0.5594736E-01  0.3329807E+00
  0.1100000E+02  0.0000000E+00 -0.1027320E+00  0.3597914E+00 -0.1736688E+01  0.5941302E-01  0.3548520E+00
  0.1094700E+02  0.1078190E+01 -0.1027320E+00  0.3804037E+00 -0.1738264E+01  0.6340779E-01  0.3750819E+00
  0.1078860E+02  0.2145990E+01 -0.1027320E+00  0.3986206E+00 -0.1740830E+01  0.6745277E-01  0.3928722E+00
  0.1052630E+02  0.3193130E+01 -0.1027320E+00  0.4145104E+00 -0.1743831E+01  0.7136724E-01  0.4083205E+00
  0.1016270E+02  0.4209520E+01 -0.1027320E+00  0.4278072E+00 -0.1746921E+01  0.7495834E-01  0.4211890E+00
  0.9701130E+01  0.5185360E+01 -0.1027320E+00  0.4378315E+00 -0.1749665E+01  0.7789749E-01  0.4308462E+00
  0.9146170E+01  0.6111270E+01 -0.1027320E+00  0.4450560E+00 -0.1751769E+01  0.8010422E-01  0.4377878E+00
  0.8503110E+01  0.6978330E+01 -0.1027320E+00  0.4496474E+00 -0.1753096E+01  0.8151753E-01  0.4421964E+00
  0.7778170E+01  0.7778170E+01 -0.1027320E+00  0.4513865E+00 -0.1753581E+01  0.8204786E-01  0.4438670E+00
  0.6978330E+01  0.8503110E+01 -0.1027320E+00  0.4496473E+00 -0.1753097E+01  0.8151755E-01  0.4421964E+00
  0.6111270E+01  0.9146170E+01 -0.1027320E+00  0.4450558E+00 -0.1751769E+01  0.8010419E-01  0.4377877E+00
  0.5185360E+01  0.9701130E+01 -0.1027320E+00  0.4378315E+00 -0.1749665E+01  0.7789749E-01  0.4308462E+00
  0.4209520E+01  0.1016270E+02 -0.1027320E+00  0.4278073E+00 -0.1746920E+01  0.7495826E-01  0.4211892E+00
  0.3193130E+01  0.1052630E+02 -0.1027320E+00  0.4145104E+00 -0.1743831E+01  0.7136739E-01  0.4083204E+00
  0.2145990E+01  0.1078860E+02 -0.1027320E+00  0.3986209E+00 -0.1740830E+01  0.6745271E-01  0.3928725E+00
  0.1078190E+01  0.1094700E+02 -0.1027320E+00  0.3804035E+00 -0.1738264E+01  0.6340782E-01  0.3750817E+00
 -0.4808250E-06  0.1100000E+02 -0.1027320E+00  0.3597911E+00 -0.1736688E+01  0.5941297E-01  0.3548517E+00
 -0.1078190E+01  0.1094700E+02 -0.1027320E+00  0.3365744E+00 -0.1737236E+01  0.5576117E-01  0.3319232E+00
 -0.2145990E+01  0.1078860E+02 -0.1027320E+00  0.3114534E+00 -0.1740966E+01  0.5274437E-01  0.3069548E+00
 -0.3193130E+01  0.1052630E+02 -0.1027320E+00  0.2847555E+00 -0.1749241E+01  0.5054373E-01  0.2802339E+00
 -0.4209520E+01  0.1016270E+02 -0.1027320E+00  0.2566160E+00 -0.1764306E+01  0.4934832E-01  0.2518263E+00
 -0.5185370E+01  0.9701130E+01 -0.1027320E+00  0.2272815E+00 -0.1790239E+01  0.4947602E-01  0.2218310E+00
 -0.6111270E+01  0.9146160E+01 -0.1027320E+00  0.1975628E+00 -0.1831864E+01  0.5099345E-01  0.1908684E+00
 -0.6978330E+01  0.8503120E+01 -0.1027320E+00  0.1681359E+00 -0.1897409E+01  0.5394419E-01  0.1592473E+00
 -0.7778170E+01  0.7778170E+01 -0.1027320E+00  0.1399599E+00 -0.2001131E+01  0.5838775E-01  0.1271992E+00
 -0.8503120E+01  0.6978330E+01 -0.1027320E+00  0.1149260E+00 -0.2166001E+01  0.6443653E-01  0.9516262E-01
 -0.9146170E+01  0.6111270E+01 -0.1027320E+00  0.9594531E-01 -0.2417420E+01  0.7186760E-01  0.6356533E-01
 -0.9701130E+01  0.5185360E+01 -0.1027320E+00  0.8690020E-01 -0.2756602E+01  0.8053929E-01  0.3263539E-01
 -0.1016270E+02  0.4209520E+01 -0.1027320E+00  0.9035533E-01 -0.3111884E+01  0.9031546E-01  0.2683919E-02
 -0.1052630E+02  0.3193130E+01 -0.1027320E+00  0.1042028E+00  0.2892770E+01  0.1009937E+00 -0.2566133E-01
 -0.1078860E+02  0.2145990E+01 -0.1027320E+00  0.1237860E+00  0.2705258E+01  0.1121881E+00 -0.5231448E-01
 -0.1094700E+02  0.1078190E+01 -0.1027320E+00  0.1457768E+00  0.2583387E+01  0.1236489E+00 -0.7721283E-01
 -0.1100000E+02 -0.9616510E-06 -0.1027320E+00  0.1681319E+00  0.2504089E+01  0.1351082E+00 -0.1000706E+00
 -0.1094700E+02 -0.1078190E+01 -0.1027320E+00  0.1892299E+00  0.2453166E+01  0.1461321E+00 -0.1202221E+00
 -0.1078860E+02 -0.2146000E+01 -0.1027320E+00  0.2085481E+00  0.2418877E+01  0.1564137E+00 -0.1379387E+00
 -0.1052630E+02 -0.3193130E+01 -0.1027320E+00  0.2257838E+00  0.2395099E+01  0.1657422E+00 -0.1533228E+00
 -0.1016270E+02 -0.4209520E+01 -0.1027320E+00  0.2404732E+00  0.2378893E+01  0.1738557E+00 -0.1661371E+00
 -0.9701130E+01 -0.5185360E+01 -0.1027320E+00  0.2517816E+00  0.2368997E+01  0.1803012E+00 -0.1757426E+00
 -0.9146160E+01 -0.6111270E+01 -0.1027320E+00  0.2599979E+00  0.2362699E+01  0.1850383E+00 -0.1826465E+00
 -0.8503110E+01 -0.6978330E+01 -0.1027320E+00  0.2651998E+00  0.2358798E+01  0.1880121E+00 -0.1870358E+00
 -0.7778170E+01 -0.7778180E+01 -0.1027320E+00  0.2671411E+00  0.2357226E+01  0.1890921E+00 -0.1887022E+00
 -0.6978330E+01 -0.8503110E+01 -0.1027320E+00  0.2651996E+00  0.2358798E+01  0.1880120E+00 -0.1870357E+00
 -0.6111270E+01 -0.9146170E+01 -0.1027320E+00  0.2599975E+00  0.2362700E+01  0.1850381E+00 -0.1826461E+00
 -0.5185360E+01 -0.9701130E+01 -0.1027320E+00  0.2517816E+00  0.2368998E+01  0.1803013E+00 -0.1757425E+00
 -0.4209510E+01 -0.1016270E+02 -0.1027320E+00  0.2404728E+00  0.2378893E+01  0.1738555E+00 -0.1661369E+00
 -0.3193130E+01 -0.1052630E+02 -0.1027320E+00  0.2257839E+00  0.2395099E+01  0.1657423E+00 -0.1533228E+00
 -0.2145990E+01 -0.1078860E+02 -0.1027320E+00  0.2085477E+00  0.2418876E+01  0.1564132E+00 -0.1379386E+00
 -0.1078190E+01 -0.1094700E+02 -0.1027320E+00  0.1892299E+00  0.2453167E+01  0.1461323E+00 -0.1202220E+00
  0.1311740E-06 -0.1100000E+02 -0.1027320E+00  0.1681317E+00  0.2504089E+01  0.1351080E+00 -0.1000704E+00
  0.1078190E+01 -0.1094700E+02 -0.1027320E+00  0.1457767E+00  0.2583389E+01  0.1236490E+00 -0.7721262E-01
  0.2145990E+01 -0.1078860E+02 -0.1027320E+00  0.1237859E+00  0.2705258E+01  0.1121880E+00 -0.5231440E-01
  0.3193140E+01 -0.1052630E+02 -0.1027320E+00  0.1042027E+00  0.2892773E+01  0.1009936E+00 -0.2566093E-01
  0.4209520E+01 -0.1016270E+02 -0.1027320E+00  0.9035550E-01 -0.3111882E+01  0.9031563E-01  0.2684079E-02
  0.5185360E+01 -0.9701130E+01 -0.1027320E+00  0.8690017E-01 -0.2756601E+01  0.8053921E-01  0.3263547E-01
  0.6111270E+01 -0.9146160E+01 -0.1027320E+00  0.9594560E-01 -0.2417418E+01  0.7186768E-01  0.6356566E-01
  0.6978330E+01 -0.8503110E+01 -0.1027320E+00  0.1149263E+00 -0.2165999E+01  0.6443655E-01  0.9516298E-01
  0.7778180E+01 -0.7778170E+01 -0.1027320E+00  0.1399602E+00 -0.2001129E+01  0.5838765E-01  0.1271996E+00
  0.8503120E+01 -0.6978320E+01 -0.1027320E+00  0.1681359E+00 -0.1897408E+01  0.5394406E-01  0.1592473E+00
  0.9146170E+01 -0.6111270E+01 -0.1027320E+00  0.1975631E+00 -0.1831863E+01  0.5099330E-01  0.1908687E+00
  0.9701130E+01 -0.5185360E+01 -0.1027320E+00  0.2272817E+00 -0.1790239E+01  0.4947600E-01  0.2218313E+00
  0.1016270E+02 -0.4209520E+01 -0.1027320E+00  0.2566163E+00 -0.1764306E+01  0.4934842E-01  0.2518266E+00
  0.1052630E+02 -0.3193130E+01 -0.1027320E+00  0.2847555E+00 -0.1749241E+01  0.5054376E-01  0.2802338E+00
  0.1078860E+02 -0.2145990E+01 -0.1027320E+00  0.3114540E+00 -0.1740966E+01  0.5274450E-01  0.3069554E+00
  0.1094700E+02 -0.1078180E+01 -0.1027320E+00  0.3365746E+00 -0.1737236E+01  0.5576120E-01  0.3319235E+00
  0.1100000E+02  0.0000000E+00 -0.2310450E+00  0.3578849E+00 -0.1736651E+01  0.5908508E-01  0.3529739E+00
  0.1094700E+02  0.1078190E+01 -0.2310450E+00  0.3783959E+00 -0.1738227E+01  0.6305949E-01  0.3731045E+00
  0.1078860E+02  0.2145990E+01 -0.2310450E+00  0.3965653E+00 -0.1740805E+01  0.6709521E-01  0.3908482E+00
  0.1052630E+02  0.3193130E+01 -0.2310450E+00  0.4123409E+00 -0.1743834E+01  0.7099479E-01  0.4061831E+00
  0.1016270E+02  0.4209520E+01 -0.2310450E+00  0.4255524E+00 -0.1746927E+01  0.7456576E-01  0.4189688E+00
  0.9701130E+01  0.5185360E+01 -0.2310450E+00  0.4355358E+00 -0.1749671E+01  0.7749150E-01  0.4285867E+00
  0.9146170E+01  0.6111270E+01 -0.2310450E+00  0.4427702E+00 -0.1751784E+01  0.7969927E-01  0.4355382E+00
  0.8503110E+01  0.6978330E+01 -0.2310450E+00  0.4472955E+00 -0.1753116E+01  0.8109967E-01  0.4398820E+00
  0.7778170E+01  0.7778170E+01 -0.2310450E+00  0.4490103E+00 -0.1753601E+01  0.8162480E-01  0.4415288E+00
  0.6978330E+01  0.8503110E+01 -0.2310450E+00  0.4472955E+00 -0.1753116E+01  0.8109970E-01  0.4398820E+00
  0.6111270E+01  0.9146170E+01 -0.2310450E+00  0.4427700E+00 -0.1751784E+01  0.7969917E-01  0.4355380E+00
  0.5185360E+01  0.9701130E+01 -0.2310450E+00  0.4355357E+00 -0.1749671E+01  0.7749151E-01  0.4285865E+00
  0.4209520E+01  0.1016270E+02 -0.2310450E+00  0.4255523E+00 -0.1746927E+01  0.7456572E-01  0.4189687E+00
  0.3193130E+01  0.1052630E+02 -0.2310450E+00  0.4123407E+00 -0.1743833E+01  0.7099473E-01  0.4061830E+00
  0.2145990E+01  0.1078860E+02 -0.2310450E+00  0.3965651E+00 -0.1740805E+01  0.6709523E-01  0.3908479E+00
  0.1078190E+01  0.1094700E+02 -0.2310450E+00  0.3783958E+00 -0.1738227E+01  0.6305945E-01  0.3731044E+00
 -0.4808250E-06  0.1100000E+02 -0.2310450E+00  0.3578844E+00 -0.1736651E+01  0.5908509E-01  0.3529734E+00
 -0.1078190E+01  0.1094700E+02 -0.2310450E+00  0.3348027E+00 -0.1737187E+01  0.5545149E-01  0.3301787E+00
 -0.2145990E+01  0.1078860E+02 -0.2310450E+00  0.3098266E+00 -0.1740861E+01  0.5243689E-01  0.3053570E+00
 -0.3193130E+01  0.1052630E+02 -0.2310450E+00  0.2832289E+00 -0.1749136E+01  0.5024375E-01  0.2787367E+00
 -0.4209520E+01  0.1016270E+02 -0.2310450E+00  0.2552355E+00 -0.1764196E+01  0.4905529E-01  0.2504770E+00
 -0.5185370E+01  0.9701130E+01 -0.2310450E+00  0.2260633E+00 -0.1790097E+01  0.4917938E-01  0.2206491E+00
 -0.6111270E+01  0.9146160E+01 -0.2310450E+00  0.1964897E+00 -0.1831646E+01  0.5067505E-01  0.1898427E+00
 -0.6978330E+01  0.8503120E+01 -0.2310450E+00  0.1671924E+00 -0.1897252E+01  0.5361654E-01  0.1583622E+00
 -0.7778170E+01  0.7778170E+01 -0.2310450E+00  0.1391667E+00 -0.2000980E+01  0.5803775E-01  0.1264871E+00
 -0.8503120E+01  0.6978330E+01 -0.2310450E+00  0.1142634E+00 -0.2165855E+01  0.6405123E-01  0.9462333E-01
 -0.9146170E+01  0.6111270E+01 -0.2310450E+00  0.9535902E-01 -0.2417571E+01  0.7143799E-01  0.6316610E-01
 -0.9701130E+01  0.5185360E+01 -0.2310450E+00  0.8638050E-01 -0.2757191E+01  0.8007671E-01  0.3239309E-01
 -0.1016270E+02  0.4209520E+01 -0.2310450E+00  0.8983919E-01 -0.3112549E+01  0.8980130E-01  0.2608908E-02
 -0.1052630E+02  0.3193130E+01 -0.2310450E+00  0.1036301E+00  0.2892084E+01  0.1004210E+00 -0.2558916E-01
 -0.1078860E+02  0.2145990E+01 -0.2310450E+00  0.1231479E+00  0.2704385E+01  0.1115643E+00 -0.5214217E-01
 -0.1094700E+02  0.1078190E+01 -0.2310450E+00  0.1450364E+00  0.2582791E+01  0.1229750E+00 -0.7689402E-01
 -0.1100000E+02 -0.9616510E-06 -0.2310450E+00  0.1672707E+00  0.2503642E+01  0.1343715E+00 -0.9961818E-01
 -0.1094700E+02 -0.1078190E+01 -0.2310450E+00  0.1882667E+00  0.2452745E+01  0.1453380E+00 -0.1196713E+00
 -0.1078860E+02 -0.2146000E+01 -0.2310450E+00  0.2075297E+00  0.2418387E+01  0.1555825E+00 -0.1373414E+00
 -0.1052630E+02 -0.3193130E+01 -0.2310450E+00  0.2246556E+00  0.2394762E+01  0.1648624E+00 -0.1526123E+00
 -0.1016270E+02 -0.4209520E+01 -0.2310450E+00  0.2392553E+00  0.2378614E+01  0.1729291E+00 -0.1653439E+00
 -0.9701130E+01 -0.5185360E+01 -0.2310450E+00  0.2505156E+00  0.2368707E+01  0.1793439E+00 -0.1749109E+00
 -0.9146160E+01 -0.6111270E+01 -0.2310450E+00  0.2587354E+00  0.2362340E+01  0.1840745E+00 -0.1818257E+00
 -0.8503110E+01 -0.6978330E+01 -0.2310450E+00  0.2638721E+00  0.2358532E+01  0.1870215E+00 -0.1861491E+00
 -0.7778170E+01 -0.7778180E+01 -0.2310450E+00  0.2657900E+00  0.2356989E+01  0.1880911E+00 -0.1877926E+00
 -0.6978330E+01 -0.8503110E+01 -0.2310450E+00  0.2638723E+00  0.2358531E+01  0.1870214E+00 -0.1861493E+00
 -0.6111270E+01 -0.9146170E+01 -0.2310450E+00  0.2587354E+00  0.2362342E+01  0.1840748E+00 -0.1818254E+00
 -0.5185360E+01 -0.9701130E+01 -0.2310450E+00  0.2505155E+00  0.2368707E+01  0.1793437E+00 -0.1749110E+00
 -0.4209510E+01 -0.1016270E+02 -0.2310450E+00  0.2392552E+00  0.2378615E+01  0.1729293E+00 -0.1653436E+00
 -0.3193130E+01 -0.1052630E+02 -0.2310450E+00  0.2246555E+00  0.2394762E+01  0.1648625E+00 -0.1526121E+00
 -0.2145990E+01 -0.1078860E+02 -0.2310450E+00  0.2075294E+00  0.2418387E+01  0.1555824E+00 -0.1373412E+00
 -0.1078190E+01 -0.1094700E+02 -0.2310450E+00  0.1882668E+00  0.2452746E+01  0.1453381E+00 -0.1196713E+00
  0.1311740E-06 -0.1100000E+02 -0.2310450E+00  0.1672705E+00  0.2503642E+01  0.1343714E+00 -0.9961795E-01
  0.1078190E+01 -0.1094700E+02 -0.2310450E+00  0.1450362E+00  0.2582791E+01  0.1229750E+00 -0.7689389E-01
  0.2145990E+01 -0.1078860E+02 -0.2310450E+00  0.1231479E+00  0.2704386E+01  0.1115644E+00 -0.5214209E-01
  0.3193140E+01 -0.1052630E+02 -0.2310450E+00  0.1036297E+00  0.2892087E+01  0.1004208E+00 -0.2558873E-01
  0.4209520E+01 -0.1016270E+02 -0.2310450E+00  0.8983909E-01 -0.3112547E+01  0.8980119E-01  0.2609054E-02
  0.5185360E+01 -0.9701130E+01 -0.2310450E+00  0.8638041E-01 -0.2757190E+01  0.8007659E-01  0.3239315E-01
  0.6111270E+01 -0.9146160E+01 -0.2310450E+00  0.9535915E-01 -0.2417569E+01  0.7143797E-01  0.6316631E-01
  0.6978330E+01 -0.8503110E+01 -0.2310450E+00  0.1142638E+00 -0.2165853E+01  0.6405117E-01  0.9462375E-01
  0.7778180E+01 -0.7778170E+01 -0.2310450E+00  0.1391671E+00 -0.2000978E+01  0.5803774E-01  0.1264875E+00
  0.8503120E+01 -0.6978320E+01 -0.2310450E+00  0.1671926E+00 -0.1897252E+01  0.5361660E-01  0.1583623E+00
  0.9146170E+01 -0.6111270E+01 -0.2310450E+00  0.1964900E+00 -0.1831645E+01  0.5067498E-01  0.1898430E+00
  0.9701130E+01 -0.5185360E+01 -0.2310450E+00  0.2260638E+00 -0.1790097E+01  0.4917960E-01  0.2206495E+00
  0.1016270E+02 -0.4209520E+01 -0.2310450E+00  0.2552355E+00 -0.1764195E+01  0.4905519E-01  0.2504770E+00
  0.1052630E+02 -0.3193130E+01 -0.2310450E+00  0.2832291E+00 -0.1749136E+01  0.5024362E-01  0.2787369E+00
  0.1078860E+02 -0.2145990E+01 -0.2310450E+00  0.3098269E+00 -0.1740861E+01  0.5243690E-01  0.3053572E+00
  0.1094700E+02 -0.1078180E+01 -0.2310450E+00  0.3348029E+00 -0.1737187E+01  0.5545148E-01  0.3301789E+00
  0.1100000E+02  0.0000000E+00 -0.4105000E+00  0.3552127E+00 -0.1736617E+01  0.5863197E-01  0.3503404E+00
  0.1094700E+02  0.1078190E+01 -0.4105000E+00  0.3756076E+00 -0.1738177E+01  0.6257648E-01  0.3703583E+00
  0.1078860E+02  0.2145990E+01 -0.4105000E+00  0.3936934E+00 -0.1740772E+01  0.6659646E-01  0.3880199E+00
  0.1052630E+02  0.3193130E+01 -0.4105000E+00  0.4093245E+00 -0.1743829E+01  0.7047360E-01  0.4032121E+00
  0.1016270E+02  0.4209520E+01 -0.4105000E+00  0.4223888E+00 -0.1746926E+01  0.7401123E-01  0.4158541E+00
  0.9701130E+01  0.5185360E+01 -0.4105000E+00  0.4323467E+00 -0.1749666E+01  0.7692187E-01  0.4254488E+00
  0.9146170E+01  0.6111270E+01 -0.4105000E+00  0.4395773E+00 -0.1751791E+01  0.7912730E-01  0.4323969E+00
  0.8503110E+01  0.6978330E+01 -0.4105000E+00  0.4440269E+00 -0.1753127E+01  0.8051180E-01  0.4366667E+00
  0.7778170E+01  0.7778170E+01 -0.4105000E+00  0.4456765E+00 -0.1753611E+01  0.8102315E-01  0.4382497E+00
  0.6978330E+01  0.8503110E+01 -0.4105000E+00  0.4440268E+00 -0.1753127E+01  0.8051186E-01  0.4366665E+00
  0.6111270E+01  0.9146170E+01 -0.4105000E+00  0.4395775E+00 -0.1751791E+01  0.7912737E-01  0.4323970E+00
  0.5185360E+01  0.9701130E+01 -0.4105000E+00  0.4323466E+00 -0.1749666E+01  0.7692185E-01  0.4254487E+00
  0.4209520E+01  0.1016270E+02 -0.4105000E+00  0.4223888E+00 -0.1746926E+01  0.7401116E-01  0.4158541E+00
  0.3193130E+01  0.1052630E+02 -0.4105000E+00  0.4093247E+00 -0.1743829E+01  0.7047372E-01  0.4032123E+00
  0.2145990E+01  0.1078860E+02 -0.4105000E+00  0.3936931E+00 -0.1740772E+01  0.6659643E-01  0.3880196E+00
  0.1078190E+01  0.1094700E+02 -0.4105000E+00  0.3756073E+00 -0.1738178E+01  0.6257647E-01  0.3703580E+00
 -0.4808250E-06  0.1100000E+02 -0.4105000E+00  0.3552121E+00 -0.1736617E+01  0.5863198E-01  0.3503397E+00
 -0.1078190E+01  0.1094700E+02 -0.4105000E+00  0.3323410E+00 -0.1737130E+01  0.5502507E-01  0.3277542E+00
 -0.2145990E+01  0.1078860E+02 -0.4105000E+00  0.3075566E+00 -0.1740746E+01  0.5201775E-01  0.3031258E+00
 -0.3193130E+01  0.1052630E+02 -0.4105000E+00  0.2811092E+00 -0.1749018E+01  0.4983497E-01  0.2766565E+00
 -0.4209520E+01  0.1016270E+02 -0.4105000E+00  0.2533069E+00 -0.1764105E+01  0.4866211E-01  0.2485888E+00
 -0.5185370E+01  0.9701130E+01 -0.4105000E+00  0.2243720E+00 -0.1789942E+01  0.4877759E-01  0.2190057E+00
 -0.6111270E+01  0.9146160E+01 -0.4105000E+00  0.1949995E+00 -0.1831417E+01  0.5024755E-01  0.1884144E+00
 -0.6978330E+01  0.8503120E+01 -0.4105000E+00  0.1658866E+00 -0.1897097E+01  0.5317341E-01  0.1571336E+00
 -0.7778170E+01  0.7778170E+01 -0.4105000E+00  0.1380735E+00 -0.2000884E+01  0.5756977E-01  0.1254990E+00