 VARIABLES="X" "Y" "Z" "abs(eta) (m)" "angle(phi) (rad)" "PRE1" "PRE2"
ZONE N=   3200 ,E =    3136 ,F=FEPOINT,ET=QUADRILATERAL
  0.1100000E+02  0.0000000E+00  0.0000000E+00  0.1313401E+00  0.2282306E+01  0.8576220E-01 -0.9947401E-01
  0.1094700E+02  0.1078190E+01  0.0000000E+00  0.1420772E+00  0.2253533E+01  0.8963919E-01 -0.1102305E+00
  0.1078860E+02  0.2145990E+01  0.0000000E+00  0.1511410E+00  0.2234037E+01  0.9305351E-01 -0.1190993E+00
  0.1052630E+02  0.3193130E+01  0.0000000E+00  0.1589061E+00  0.2219262E+01  0.9597358E-01 -0.1266500E+00
  0.1016270E+02  0.4209520E+01  0.0000000E+00  0.1646312E+00  0.2209954E+01  0.9820577E-01 -0.1321327E+00
  0.9701130E+01  0.5185360E+01  0.0000000E+00  0.1683979E+00  0.2204367E+01  0.9969599E-01 -0.1357150E+00
  0.9146170E+01  0.6111270E+01  0.0000000E+00  0.1699788E+00  0.2202474E+01  0.1003724E+00 -0.1371793E+00
  0.8503110E+01  0.6978330E+01  0.0000000E+00  0.1700083E+00  0.2202100E+01  0.1003384E+00 -0.1372407E+00
  0.7778170E+01  0.7778170E+01  0.0000000E+00  0.1678240E+00  0.2205194E+01  0.9946797E-01 -0.1351703E+00
  0.6978330E+01  0.8503110E+01  0.0000000E+00  0.1636276E+00  0.2211510E+01  0.9781136E-01 -0.1311752E+00
  0.6111270E+01  0.9146170E+01  0.0000000E+00  0.1573132E+00  0.2222401E+01  0.9540462E-01 -0.1250815E+00
  0.5185360E+01  0.9701130E+01  0.0000000E+00  0.1496103E+00  0.2236781E+01  0.9243429E-01 -0.1176398E+00
  0.4209520E+01  0.1016270E+02  0.0000000E+00  0.1400725E+00  0.2258411E+01  0.8890346E-01 -0.1082427E+00
  0.3193130E+01  0.1052630E+02  0.0000000E+00  0.1290298E+00  0.2289427E+01  0.8494735E-01 -0.9712178E-01
  0.2145990E+01  0.1078860E+02  0.0000000E+00  0.1166016E+00  0.2335007E+01  0.8068456E-01 -0.8417803E-01
  0.1078190E+01  0.1094700E+02  0.0000000E+00  0.1036128E+00  0.2398367E+01  0.7628907E-01 -0.7011134E-01
 -0.4808250E-06  0.1100000E+02  0.0000000E+00  0.9023962E-01  0.2492511E+01  0.7188840E-01 -0.5454582E-01
 -0.1078190E+01  0.1094700E+02  0.0000000E+00  0.7743955E-01  0.2632811E+01  0.6763095E-01 -0.3772185E-01
 -0.2145990E+01  0.1078860E+02  0.0000000E+00  0.6661805E-01  0.2841985E+01  0.6365038E-01 -0.1966199E-01
 -0.3193130E+01  0.1052630E+02  0.0000000E+00  0.6002404E-01  0.3126291E+01  0.6001701E-01 -0.9184459E-03
 -0.4209520E+01  0.1016270E+02  0.0000000E+00  0.5985901E-01 -0.2826122E+01  0.5690498E-01  0.1857212E-01
 -0.5185370E+01  0.9701130E+01  0.0000000E+00  0.6669149E-01 -0.2524646E+01  0.5439681E-01  0.3858421E-01
 -0.6111270E+01  0.9146160E+01  0.0000000E+00  0.7899811E-01 -0.2298740E+01  0.5256029E-01  0.5897557E-01
 -0.6978330E+01  0.8503120E+01  0.0000000E+00  0.9457384E-01 -0.2144493E+01  0.5132907E-01  0.7943260E-01
 -0.7778170E+01  0.7778170E+01  0.0000000E+00  0.1119070E+00 -0.2042186E+01  0.5081977E-01  0.9970216E-01
 -0.8503120E+01  0.6978330E+01  0.0000000E+00  0.1300416E+00 -0.1973850E+01  0.5100619E-01  0.1196211E+00
 -0.9146170E+01  0.6111270E+01  0.0000000E+00  0.1483299E+00 -0.1927898E+01  0.5185022E-01  0.1389723E+00
 -0.9701130E+01  0.5185360E+01  0.0000000E+00  0.1664824E+00 -0.1896028E+01  0.5319589E-01  0.1577548E+00
 -0.1016270E+02  0.4209520E+01  0.0000000E+00  0.1838849E+00 -0.1874756E+01  0.5503684E-01  0.1754554E+00
 -0.1052630E+02  0.3193130E+01  0.0000000E+00  0.2003820E+00 -0.1860602E+01  0.5726246E-01  0.1920259E+00
 -0.1078860E+02  0.2145990E+01  0.0000000E+00  0.2156699E+00 -0.1851540E+01  0.5975574E-01  0.2072263E+00
 -0.1094700E+02  0.1078190E+01  0.0000000E+00  0.2299902E+00 -0.1845416E+01  0.6236898E-01  0.2213721E+00
 -0.1100000E+02 -0.9616510E-06  0.0000000E+00  0.2426526E+00 -0.1841922E+01  0.6498621E-01  0.2337886E+00
 -0.1094700E+02 -0.1078190E+01  0.0000000E+00  0.2536903E+00 -0.1840054E+01  0.6748560E-01  0.2445495E+00
 -0.1078860E+02 -0.2146000E+01  0.0000000E+00  0.2628450E+00 -0.1839356E+01  0.6974403E-01  0.2534231E+00
 -0.1052630E+02 -0.3193130E+01  0.0000000E+00  0.2706502E+00 -0.1838956E+01  0.7171062E-01  0.2609772E+00
 -0.1016270E+02 -0.4209520E+01  0.0000000E+00  0.2763438E+00 -0.1839015E+01  0.7323495E-01  0.2664630E+00
 -0.9701130E+01 -0.5185360E+01  0.0000000E+00  0.2800705E+00 -0.1839149E+01  0.7425891E-01  0.2700464E+00
 -0.9146160E+01 -0.6111270E+01  0.0000000E+00  0.2816074E+00 -0.1839365E+01  0.7472491E-01  0.2715123E+00
 -0.8503110E+01 -0.6978330E+01  0.0000000E+00  0.2816605E+00 -0.1839234E+01  0.7470345E-01  0.2715732E+00
 -0.7778170E+01 -0.7778180E+01  0.0000000E+00  0.2795039E+00 -0.1839130E+01  0.7410356E-01  0.2695015E+00
 -0.6978330E+01 -0.8503110E+01  0.0000000E+00  0.2753475E+00 -0.1838986E+01  0.7296336E-01  0.2655044E+00
 -0.6111270E+01 -0.9146170E+01  0.0000000E+00  0.2690340E+00 -0.1839115E+01  0.7132370E-01  0.2594074E+00
 -0.5185360E+01 -0.9701130E+01  0.0000000E+00  0.2613262E+00 -0.1839311E+01  0.6932963E-01  0.2519619E+00
 -0.4209510E+01 -0.1016270E+02  0.0000000E+00  0.2516455E+00 -0.1840323E+01  0.6700699E-01  0.2425603E+00
 -0.3193130E+01 -0.1052630E+02  0.0000000E+00  0.2402469E+00 -0.1842481E+01  0.6447140E-01  0.2314347E+00
 -0.2145990E+01 -0.1078860E+02  0.0000000E+00  0.2270676E+00 -0.1846606E+01  0.6183634E-01  0.2184857E+00
 -0.1078190E+01 -0.1094700E+02  0.0000000E+00  0.2128219E+00 -0.1852840E+01  0.5923237E-01  0.2044130E+00
  0.1311740E-06 -0.1100000E+02  0.0000000E+00  0.1971979E+00 -0.1862937E+01  0.5679357E-01  0.1888425E+00
  0.1078190E+01 -0.1094700E+02  0.0000000E+00  0.1804844E+00 -0.1878388E+01  0.5464413E-01  0.1720135E+00
  0.2145990E+01 -0.1078860E+02  0.0000000E+00  0.1627861E+00 -0.1901799E+01  0.5290404E-01  0.1539496E+00
  0.3193140E+01 -0.1052630E+02  0.0000000E+00  0.1447157E+00 -0.1935417E+01  0.5160493E-01  0.1352020E+00
  0.4209520E+01 -0.1016270E+02  0.0000000E+00  0.1264134E+00 -0.1985288E+01  0.5090986E-01  0.1157089E+00
  0.5185360E+01 -0.9701130E+01  0.0000000E+00  0.1083786E+00 -0.2059446E+01  0.5087661E-01  0.9569477E-01
  0.6111270E+01 -0.9146160E+01  0.0000000E+00  0.9125853E-01 -0.2171115E+01  0.5155247E-01  0.7530246E-01
  0.6978330E+01 -0.8503110E+01  0.0000000E+00  0.7616001E-01 -0.2337598E+01  0.5284252E-01  0.5484539E-01
  0.7778180E+01 -0.7778170E+01  0.0000000E+00  0.6482820E-01 -0.2579017E+01  0.5483715E-01  0.3457720E-01
  0.8503120E+01 -0.6978320E+01  0.0000000E+00  0.5932816E-01 -0.2891902E+01  0.5748833E-01  0.1466024E-01
  0.9146170E+01 -0.6111270E+01  0.0000000E+00  0.6091489E-01  0.3064564E+01  0.6073426E-01 -0.4687543E-02
  0.9701130E+01 -0.5185360E+01  0.0000000E+00  0.6854606E-01  0.2792187E+01  0.6440425E-01 -0.2346604E-01
  0.1016270E+02 -0.4209520E+01  0.0000000E+00  0.7987732E-01  0.2600218E+01  0.6845495E-01 -0.4116195E-01
  0.1052630E+02 -0.3193130E+01  0.0000000E+00  0.9287921E-01  0.2470893E+01  0.7276034E-01 -0.5772763E-01
  0.1078860E+02 -0.2145990E+01  0.0000000E+00  0.1061803E+00  0.2384543E+01  0.7717885E-01 -0.7292248E-01
  0.1094700E+02 -0.1078180E+01  0.0000000E+00  0.1193020E+00  0.2323605E+01  0.8156574E-01 -0.8706325E-01
  0.1100000E+02  0.0000000E+00 -0.2568960E-01  0.1312589E+00  0.2282237E+01  0.8570224E-01 -0.9941841E-01
  0.1094700E+02  0.1078190E+01 -0.2568960E-01  0.1419924E+00  0.2253456E+01  0.8957715E-01 -0.1101716E+00
  0.1078860E+02  0.2145990E+01 -0.2568960E-01  0.1510582E+00  0.2233933E+01  0.9299022E-01 -0.1190437E+00
  0.1052630E+02  0.3193130E+01 -0.2568960E-01  0.1588101E+00  0.2219191E+01  0.9590660E-01 -0.1265803E+00
  0.1016270E+02  0.4209520E+01 -0.2568960E-01  0.1645289E+00  0.2209894E+01  0.9813683E-01 -0.1320565E+00
  0.9701130E+01  0.5185360E+01 -0.2568960E-01  0.1682965E+00  0.2204301E+01  0.9962697E-01 -0.1356399E+00
  0.9146170E+01  0.6111270E+01 -0.2568960E-01  0.1698856E+00  0.2202381E+01  0.1003046E+00 -0.1371134E+00
  0.8503110E+01  0.6978330E+01 -0.2568960E-01  0.1699058E+00  0.2202032E+01  0.1002687E+00 -0.1371647E+00
  0.7778170E+01  0.7778170E+01 -0.2568960E-01  0.1677196E+00  0.2205134E+01  0.9939805E-01 -0.1350922E+00
  0.6978330E+01  0.8503110E+01 -0.2568960E-01  0.1635291E+00  0.2211442E+01  0.9774349E-01 -0.1311029E+00
  0.6111270E+01  0.9146170E+01 -0.2568960E-01  0.1572269E+00  0.2222302E+01  0.9533995E-01 -0.1250223E+00
  0.5185360E+01  0.9701130E+01 -0.2568960E-01  0.1495204E+00  0.2236706E+01  0.9236998E-01 -0.1175761E+00
  0.4209520E+01  0.1016270E+02 -0.2568960E-01  0.1399859E+00  0.2258343E+01  0.8884117E-01 -0.1081818E+00
  0.3193130E+01  0.1052630E+02 -0.2568960E-01  0.1289519E+00  0.2289343E+01  0.8488786E-01 -0.9707027E-01
  0.2145990E+01  0.1078860E+02 -0.2568960E-01  0.1165369E+00  0.2334873E+01  0.8062848E-01 -0.8414216E-01
  0.1078190E+01  0.1094700E+02 -0.2568960E-01  0.1035504E+00  0.2398263E+01  0.7623577E-01 -0.7007702E-01
 -0.4808250E-06  0.1100000E+02 -0.2568960E-01  0.9018279E-01  0.2492417E+01  0.7183804E-01 -0.5451819E-01
 -0.1078190E+01  0.1094700E+02 -0.2568960E-01  0.7739003E-01  0.2632688E+01  0.6758305E-01 -0.3770607E-01
 -0.2145990E+01  0.1078860E+02 -0.2568960E-01  0.6657408E-01  0.2841780E+01  0.6360434E-01 -0.1966204E-01
 -0.3193130E+01  0.1052630E+02 -0.2568960E-01  0.5998167E-01  0.3126151E+01  0.5997452E-01 -0.9261764E-03
 -0.4209520E+01  0.1016270E+02 -0.2568960E-01  0.5981554E-01 -0.2826200E+01  0.5686513E-01  0.1855413E-01
 -0.5185370E+01  0.9701130E+01 -0.2568960E-01  0.6664228E-01 -0.2524678E+01  0.5435793E-01  0.3855397E-01
 -0.6111270E+01  0.9146160E+01 -0.2568960E-01  0.7893936E-01 -0.2298736E+01  0.5252095E-01  0.5893192E-01
 -0.6978330E+01  0.8503120E+01 -0.2568960E-01  0.9450673E-01 -0.2144489E+01  0.5129230E-01  0.7937646E-01
 -0.7778170E+01  0.7778170E+01 -0.2568960E-01  0.1118299E+00 -0.2042180E+01  0.5078414E-01  0.9963384E-01
 -0.8503120E+01  0.6978330E+01 -0.2568960E-01  0.1299547E+00 -0.1973831E+01  0.5096969E-01  0.1195421E+00
 -0.9146170E+01  0.6111270E+01 -0.2568960E-01  0.1482342E+00 -0.1927862E+01  0.5181175E-01  0.1388846E+00
 -0.9701130E+01  0.5185360E+01 -0.2568960E-01  0.1663723E+00 -0.1896009E+01  0.5315771E-01  0.1576516E+00
 -0.1016270E+02  0.4209520E+01 -0.2568960E-01  0.1837631E+00 -0.1874742E+01  0.5499794E-01  0.1753400E+00
 -0.1052630E+02  0.3193130E+01 -0.2568960E-01  0.2002525E+00 -0.1860584E+01  0.5722198E-01  0.1919028E+00
 -0.1078860E+02  0.2145990E+01 -0.2568960E-01  0.2155368E+00 -0.1851512E+01  0.5971312E-01  0.2071001E+00
 -0.1094700E+02  0.1078190E+01 -0.2568960E-01  0.2298416E+00 -0.1845398E+01  0.6232467E-01  0.2212302E+00
 -0.1100000E+02 -0.9616510E-06 -0.2568960E-01  0.2424937E+00 -0.1841907E+01  0.6494021E-01  0.2336364E+00
 -0.1094700E+02 -0.1078190E+01 -0.2568960E-01  0.2535284E+00 -0.1840036E+01  0.6743822E-01  0.2443946E+00
 -0.1078860E+02 -0.2146000E+01 -0.2568960E-01  0.2626858E+00 -0.1839333E+01  0.6969593E-01  0.2532713E+00
 -0.1052630E+02 -0.3193130E+01 -0.2568960E-01  0.2704771E+00 -0.1838938E+01  0.7166022E-01  0.2608116E+00
 -0.1016270E+02 -0.4209520E+01 -0.2568960E-01  0.2761637E+00 -0.1838999E+01  0.7318293E-01  0.2662905E+00
 -0.9701130E+01 -0.5185360E+01 -0.2568960E-01  0.2798919E+00 -0.1839132E+01  0.7420682E-01  0.2698756E+00
 -0.9146160E+01 -0.6111270E+01 -0.2568960E-01  0.2814377E+00 -0.1839343E+01  0.7467395E-01  0.2713503E+00
 -0.8503110E+01 -0.6978330E+01 -0.2568960E-01  0.2814810E+00 -0.1839216E+01  0.7465107E-01  0.2714015E+00
 -0.7778170E+01 -0.7778180E+01 -0.2568960E-01  0.2793218E+00 -0.1839114E+01  0.7405083E-01  0.2693272E+00
 -0.6978330E+01 -0.8503110E+01 -0.2568960E-01  0.2751717E+00 -0.1838969E+01  0.7291207E-01  0.2653362E+00
 -0.6111270E+01 -0.9146170E+01 -0.2568960E-01  0.2688715E+00 -0.1839091E+01  0.7127453E-01  0.2592524E+00
 -0.5185360E+01 -0.9701130E+01 -0.2568960E-01  0.2611593E+00 -0.1839293E+01  0.6928089E-01  0.2518022E+00
 -0.4209510E+01 -0.1016270E+02 -0.2568960E-01  0.2514814E+00 -0.1840308E+01  0.6695953E-01  0.2424032E+00
 -0.3193130E+01 -0.1052630E+02 -0.2568960E-01  0.2400921E+00 -0.1842463E+01  0.6442561E-01  0.2312867E+00
 -0.2145990E+01 -0.1078860E+02 -0.2568960E-01  0.2269284E+00 -0.1846578E+01  0.6179240E-01  0.2183534E+00
 -0.1078190E+01 -0.1094700E+02 -0.2568960E-01  0.2126851E+00 -0.1852821E+01  0.5919043E-01  0.2042827E+00
  0.1311740E-06 -0.1100000E+02 -0.2568960E-01  0.1970678E+00 -0.1862922E+01  0.5675326E-01  0.1887188E+00
  0.1078190E+01 -0.1094700E+02 -0.2568960E-01  0.1803659E+00 -0.1878369E+01  0.5460513E-01  0.1719016E+00
  0.2145990E+01 -0.1078860E+02 -0.2568960E-01  0.1626825E+00 -0.1901765E+01  0.5286526E-01  0.1538533E+00
  0.3193140E+01 -0.1052630E+02 -0.2568960E-01  0.1446198E+00 -0.1935397E+01  0.5156803E-01  0.1351134E+00
  0.4209520E+01 -0.1016270E+02 -0.2568960E-01  0.1263272E+00 -0.1985278E+01  0.5087388E-01  0.1156305E+00
  0.5185360E+01 -0.9701130E+01 -0.2568960E-01  0.1083033E+00 -0.2059435E+01  0.5084015E-01  0.9562885E-01
  0.6111270E+01 -0.9146160E+01 -0.2568960E-01  0.9119328E-01 -0.2171091E+01  0.5151377E-01  0.7524990E-01
  0.6978330E+01 -0.8503110E+01 -0.2568960E-01  0.7610493E-01 -0.2337605E+01  0.5280469E-01  0.5480535E-01
  0.7778180E+01 -0.7778170E+01 -0.2568960E-01  0.6478062E-01 -0.2579064E+01  0.5479851E-01  0.3454927E-01
  0.8503120E+01 -0.6978320E+01 -0.2568960E-01  0.5928447E-01 -0.2892010E+01  0.5744759E-01  0.1464321E-01
  0.9146170E+01 -0.6111270E+01 -0.2568960E-01  0.6087144E-01  0.3064372E+01  0.6069005E-01 -0.4695870E-02
  0.9701130E+01 -0.5185360E+01 -0.2568960E-01  0.6850067E-01  0.2792056E+01  0.6435852E-01 -0.2345894E-01
  0.1016270E+02 -0.4209520E+01 -0.2568960E-01  0.7982635E-01  0.2600114E+01  0.6840701E-01 -0.4114278E-01
  0.1052630E+02 -0.3193130E+01 -0.2568960E-01  0.9282260E-01  0.2470777E+01  0.7270930E-01 -0.5770088E-01
  0.1078860E+02 -0.2145990E+01 -0.2568960E-01  0.1061206E+00  0.2384397E+01  0.7712476E-01 -0.7289271E-01
  0.1094700E+02 -0.1078180E+01 -0.2568960E-01  0.1192298E+00  0.2323517E+01  0.8150872E-01 -0.8701770E-01
  0.1100000E+02  0.0000000E+00 -0.1027320E+00  0.1309997E+00  0.2282151E+01  0.8552447E-01 -0.9922945E-01
  0.1094700E+02  0.1078190E+01 -0.1027320E+00  0.1417249E+00  0.2253327E+01  0.8939424E-01 -0.1099755E+00
  0.1078860E+02  0.2145990E+01 -0.1027320E+00  0.1508012E+00  0.2233711E+01  0.9280565E-01 -0.1188617E+00
  0.1052630E+02  0.3193130E+01 -0.1027320E+00  0.1585104E+00  0.2219086E+01  0.9571245E-01 -0.1263514E+00
  0.1016270E+02  0.4209520E+01 -0.1027320E+00  0.1642047E+00  0.2209839E+01  0.9793623E-01 -0.1318017E+00
  0.9701130E+01  0.5185360E+01 -0.1027320E+00  0.1679795E+00  0.2204206E+01  0.9942652E-01 -0.1353938E+00
  0.9146170E+01  0.6111270E+01 -0.1027320E+00  0.1695974E+00  0.2202199E+01  0.1001096E+00 -0.1368991E+00
  0.8503110E+01  0.6978330E+01 -0.1027320E+00  0.1695857E+00  0.2201940E+01  0.1000672E+00 -0.1369156E+00
  0.7778170E+01  0.7778170E+01 -0.1027320E+00  0.1673892E+00  0.2205082E+01  0.9919525E-01 -0.1348312E+00
  0.6978330E+01  0.8503110E+01 -0.1027320E+00  0.1632208E+00  0.2211342E+01  0.9754618E-01 -0.1308654E+00
  0.6111270E+01  0.9146170E+01 -0.1027320E+00  0.1569597E+00  0.2222094E+01  0.9515193E-01 -0.1248297E+00
  0.5185360E+01  0.9701130E+01 -0.1027320E+00  0.1492392E+00  0.2236587E+01  0.9218224E-01 -0.1173659E+00
  0.4209520E+01  0.1016270E+02 -0.1027320E+00  0.1397097E+00  0.2258268E+01  0.8865772E-01 -0.1079750E+00
  0.3193130E+01  0.1052630E+02 -0.1027320E+00  0.1287073E+00  0.2289195E+01  0.8471252E-01 -0.9689864E-01
  0.2145990E+01  0.1078860E+02 -0.1027320E+00  0.1163350E+00  0.2334553E+01  0.8046184E-01 -0.8402215E-01
  0.1078190E+01  0.1094700E+02 -0.1027320E+00  0.1033526E+00  0.2398057E+01  0.7607573E-01 -0.6995885E-01
 -0.4808250E-06  0.1100000E+02 -0.1027320E+00  0.9000192E-01  0.2492272E+01  0.7168608E-01 -0.5441922E-01
 -0.1078190E+01  0.1094700E+02 -0.1027320E+00  0.7723506E-01  0.2632422E+01  0.6743771E-01 -0.3764851E-01
 -0.2145990E+01  0.1078860E+02 -0.1027320E+00  0.6643709E-01  0.2841249E+01  0.6346302E-01 -0.1965530E-01
 -0.3193130E+01  0.1052630E+02 -0.1027320E+00  0.5985030E-01  0.3125864E+01  0.5984290E-01 -0.9413507E-03
 -0.4209520E+01  0.1016270E+02 -0.1027320E+00  0.5968305E-01 -0.2826310E+01  0.5674119E-01  0.1850685E-01
 -0.5185370E+01  0.9701130E+01 -0.1027320E+00  0.6649192E-01 -0.2524702E+01  0.5423622E-01  0.3846567E-01
 -0.6111270E+01  0.9146160E+01 -0.1027320E+00  0.7876027E-01 -0.2298663E+01  0.5239750E-01  0.5880206E-01
 -0.6978330E+01  0.8503120E+01 -0.1027320E+00  0.9430222E-01 -0.2144431E+01  0.5117676E-01  0.7920763E-01
 -0.7778170E+01  0.7778170E+01 -0.1027320E+00  0.1115930E+00 -0.2042139E+01  0.5067251E-01  0.9942485E-01
 -0.8503120E+01  0.6978330E+01 -0.1027320E+00  0.1296862E+00 -0.1973759E+01  0.5085582E-01  0.1192988E+00
 -0.9146170E+01  0.6111270E+01 -0.1027320E+00  0.1479403E+00 -0.1927744E+01  0.5169268E-01  0.1386153E+00
 -0.9701130E+01  0.5185360E+01 -0.1027320E+00  0.1660328E+00 -0.1895957E+01  0.5304109E-01  0.1573326E+00
 -0.1016270E+02  0.4209520E+01 -0.1027320E+00  0.1833843E+00 -0.1874718E+01  0.5488040E-01  0.1749798E+00
 -0.1052630E+02  0.3193130E+01 -0.1027320E+00  0.1998512E+00 -0.1860546E+01  0.5709999E-01  0.1915205E+00
 -0.1078860E+02  0.2145990E+01 -0.1027320E+00  0.2151285E+00 -0.1851447E+01  0.5958648E-01  0.2067117E+00
 -0.1094700E+02  0.1078190E+01 -0.1027320E+00  0.2293820E+00 -0.1845374E+01  0.6219475E-01  0.2207893E+00
 -0.1100000E+02 -0.9616510E-06 -0.1027320E+00  0.2419978E+00 -0.1841900E+01  0.6480589E-01  0.2331590E+00
 -0.1094700E+02 -0.1078190E+01 -0.1027320E+00  0.2530248E+00 -0.1840022E+01  0.6730092E-01  0.2439101E+00
 -0.1078860E+02 -0.2146000E+01 -0.1027320E+00  0.2621958E+00 -0.1839301E+01  0.6955793E-01  0.2528010E+00
 -0.1052630E+02 -0.3193130E+01 -0.1027320E+00  0.2699399E+00 -0.1838931E+01  0.7151601E-01  0.2602940E+00
 -0.1016270E+02 -0.4209520E+01 -0.1027320E+00  0.2756008E+00 -0.1839001E+01  0.7303445E-01  0.2657475E+00
 -0.9701130E+01 -0.5185360E+01 -0.1027320E+00  0.2793374E+00 -0.1839129E+01  0.7405902E-01  0.2693411E+00
 -0.9146160E+01 -0.6111270E+01 -0.1027320E+00  0.2809147E+00 -0.1839324E+01  0.7453007E-01  0.2708475E+00
 -0.8503110E+01 -0.6978330E+01 -0.1027320E+00  0.2809231E+00 -0.1839214E+01  0.7450251E-01  0.2708638E+00
 -0.7778170E+01 -0.7778180E+01 -0.1027320E+00  0.2787527E+00 -0.1839117E+01  0.7390093E-01  0.2687781E+00
 -0.6978330E+01 -0.8503110E+01 -0.1027320E+00  0.2746255E+00 -0.1838964E+01  0.7276615E-01  0.2648098E+00
 -0.6111270E+01 -0.9146170E+01 -0.1027320E+00  0.2683705E+00 -0.1839064E+01  0.7113479E-01  0.2587712E+00
 -0.5185360E+01 -0.9701130E+01 -0.1027320E+00  0.2606413E+00 -0.1839282E+01  0.6914076E-01  0.2513035E+00
 -0.4209510E+01 -0.1016270E+02 -0.1027320E+00  0.2509678E+00 -0.1840303E+01  0.6682171E-01  0.2419085E+00
 -0.3193130E+01 -0.1052630E+02 -0.1027320E+00  0.2396132E+00 -0.1842443E+01  0.6429252E-01  0.2308266E+00
 -0.2145990E+01 -0.1078860E+02 -0.1027320E+00  0.2265003E+00 -0.1846521E+01  0.6166338E-01  0.2179449E+00
 -0.1078190E+01 -0.1094700E+02 -0.1027320E+00  0.2122598E+00 -0.1852789E+01  0.5906565E-01  0.2038762E+00
  0.1311740E-06 -0.1100000E+02 -0.1027320E+00  0.1966625E+00 -0.1862902E+01  0.5663285E-01  0.1883318E+00
  0.1078190E+01 -0.1094700E+02 -0.1027320E+00  0.1800004E+00 -0.1878322E+01  0.5448628E-01  0.1715558E+00
  0.2145990E+01 -0.1078860E+02 -0.1027320E+00  0.1623643E+00 -0.1901658E+01  0.5274535E-01  0.1535582E+00
  0.3193140E+01 -0.1052630E+02 -0.1027320E+00  0.1443239E+00 -0.1935332E+01  0.5145368E-01  0.1348403E+00
  0.4209520E+01 -0.1016270E+02 -0.1027320E+00  0.1260619E+00 -0.1985239E+01  0.5076259E-01  0.1153897E+00
  0.5185360E+01 -0.9701130E+01 -0.1027320E+00  0.1080730E+00 -0.2059368E+01  0.5072567E-01  0.9542887E-01
  0.6111270E+01 -0.9146160E+01 -0.1027320E+00  0.9099411E-01 -0.2170973E+01  0.5139241E-01  0.7509160E-01
  0.6978330E+01 -0.8503110E+01 -0.1027320E+00  0.7593656E-01 -0.2337571E+01  0.5268602E-01  0.5468588E-01
  0.7778180E+01 -0.7778170E+01 -0.1027320E+00  0.6463707E-01 -0.2579113E+01  0.5467878E-01  0.3447003E-01
  0.8503120E+01 -0.6978320E+01 -0.1027320E+00  0.5915017E-01 -0.2892217E+01  0.5732046E-01  0.1459820E-01
  0.9146170E+01 -0.6111270E+01 -0.1027320E+00  0.6073635E-01  0.3063881E+01  0.6055304E-01 -0.4715147E-02
  0.9701130E+01 -0.5185360E+01 -0.1027320E+00  0.6835890E-01  0.2791772E+01  0.6421869E-01 -0.2342861E-01
  0.1016270E+02 -0.4209520E+01 -0.1027320E+00  0.7966440E-01  0.2599946E+01  0.6826131E-01 -0.4107080E-01
  0.1052630E+02 -0.3193130E+01 -0.1027320E+00  0.9264352E-01  0.2470541E+01  0.7255544E-01 -0.5760669E-01
  0.1078860E+02 -0.2145990E+01 -0.1027320E+00  0.1059346E+00  0.2384039E+01  0.7696353E-01 -0.7279255E-01
  0.1094700E+02 -0.1078180E+01 -0.1027320E+00  0.1190026E+00  0.2323353E+01  0.8133910E-01 -0.8686521E-01
  0.1100000E+02  0.0000000E+00 -0.2310450E+00  0.1305774E+00  0.2281972E+01  0.8523120E-01 -0.9892479E-01
  0.1094700E+02  0.1078190E+01 -0.2310450E+00  0.1412844E+00  0.2253102E+01  0.8909168E-01 -0.1096538E+00
  0.1078860E+02  0.2145990E+01 -0.2310450E+00  0.1503815E+00  0.2233314E+01  0.9250025E-01 -0.1185677E+00
  0.1052630E+02  0.3193130E+01 -0.2310450E+00  0.1580153E+00  0.2218899E+01  0.9538983E-01 -0.1259747E+00
  0.1016270E+02  0.4209520E+01 -0.2310450E+00  0.1636760E+00  0.2209709E+01  0.9760384E-01 -0.1313900E+00
  0.9701130E+01  0.5185360E+01 -0.2310450E+00  0.1674567E+00  0.2204033E+01  0.9909362E-01 -0.1349896E+00
  0.9146170E+01  0.6111270E+01 -0.2310450E+00  0.1691269E+00  0.2201859E+01  0.9978542E-01 -0.1365532E+00
  0.8503110E+01  0.6978330E+01 -0.2310450E+00  0.1690577E+00  0.2201769E+01  0.9973224E-01 -0.1365064E+00
  0.7778170E+01  0.7778170E+01 -0.2310450E+00  0.1668502E+00  0.2204955E+01  0.9885871E-01 -0.1344096E+00
  0.6978330E+01  0.8503110E+01 -0.2310450E+00  0.1627114E+00  0.2211161E+01  0.9721811E-01 -0.1304746E+00
  0.6111270E+01  0.9146170E+01 -0.2310450E+00  0.1565237E+00  0.2221714E+01  0.9484029E-01 -0.1245190E+00
  0.5185360E+01  0.9701130E+01 -0.2310450E+00  0.1487752E+00  0.2236379E+01  0.9187137E-01 -0.1170202E+00
  0.4209520E+01  0.1016270E+02 -0.2310450E+00  0.1392596E+00  0.2258105E+01  0.8835457E-01 -0.1076416E+00
  0.3193130E+01  0.1052630E+02 -0.2310450E+00  0.1283032E+00  0.2288946E+01  0.8442261E-01 -0.9661544E-01
  0.2145990E+01  0.1078860E+02 -0.2310450E+00  0.1160059E+00  0.2333992E+01  0.8018722E-01 -0.8382942E-01
  0.1078190E+01  0.1094700E+02 -0.2310450E+00  0.1030287E+00  0.2397712E+01  0.7581327E-01 -0.6976578E-01
 -0.4808250E-06  0.1100000E+02 -0.2310450E+00  0.8970816E-01  0.2491989E+01  0.7143673E-01 -0.5426184E-01
 -0.1078190E+01  0.1094700E+02 -0.2310450E+00  0.7698095E-01  0.2631994E+01  0.6719977E-01 -0.3755340E-01
 -0.2145990E+01  0.1078860E+02 -0.2310450E+00  0.6621428E-01  0.2840332E+01  0.6323219E-01 -0.1964740E-01
 -0.3193130E+01  0.1052630E+02 -0.2310450E+00  0.5963741E-01  0.3125358E+01  0.5962955E-01 -0.9681302E-03
 -0.4209520E+01  0.1016270E+02 -0.2310450E+00  0.5946684E-01 -0.2826557E+01  0.5654020E-01  0.1842581E-01
 -0.5185370E+01  0.9701130E+01 -0.2310450E+00  0.6624705E-01 -0.2524785E+01  0.5403963E-01  0.3831957E-01
 -0.6111270E+01  0.9146160E+01 -0.2310450E+00  0.7846574E-01 -0.2298591E+01  0.5219732E-01  0.5858593E-01
 -0.6978330E+01  0.8503120E+01 -0.2310450E+00  0.9396512E-01 -0.2144392E+01  0.5099072E-01  0.7892649E-01
 -0.7778170E+01  0.7778170E+01 -0.2310450E+00  0.1112034E+00 -0.2042103E+01  0.5049201E-01  0.9907952E-01
 -0.8503120E+01  0.6978330E+01 -0.2310450E+00  0.1292440E+00 -0.1973673E+01  0.5067218E-01  0.1188963E+00
 -0.9146170E+01  0.6111270E+01 -0.2310450E+00  0.1474571E+00 -0.1927563E+01  0.5149884E-01  0.1381719E+00
 -0.9701130E+01  0.5185360E+01 -0.2310450E+00  0.1654715E+00 -0.1895891E+01  0.5285134E-01  0.1568042E+00
 -0.1016270E+02  0.4209520E+01 -0.2310450E+00  0.1827615E+00 -0.1874685E+01  0.5468829E-01  0.1743874E+00
 -0.1052630E+02  0.3193130E+01 -0.2310450E+00  0.1991884E+00 -0.1860494E+01  0.5690068E-01  0.1908883E+00
 -0.1078860E+02  0.2145990E+01 -0.2310450E+00  0.2144569E+00 -0.1851338E+01  0.5937808E-01  0.2060729E+00
 -0.1094700E+02  0.1078190E+01 -0.2310450E+00  0.2286216E+00 -0.1845337E+01  0.6198041E-01  0.2200597E+00
 -0.1100000E+02 -0.9616510E-06 -0.2310450E+00  0.2411844E+00 -0.1841884E+01  0.6458422E-01  0.2323764E+00
 -0.1094700E+02 -0.1078190E+01 -0.2310450E+00  0.2521929E+00 -0.1839999E+01  0.6707391E-01  0.2431098E+00
 -0.1078860E+02 -0.2146000E+01 -0.2310450E+00  0.2613899E+00 -0.1839240E+01  0.6932877E-01  0.2520282E+00
 -0.1052630E+02 -0.3193130E+01 -0.2310450E+00  0.2690520E+00 -0.1838913E+01  0.7127625E-01  0.2594392E+00
 -0.1016270E+02 -0.4209520E+01 -0.2310450E+00  0.2746768E+00 -0.1838995E+01  0.7278802E-01  0.2648570E+00
 -0.9701130E+01 -0.5185360E+01 -0.2310450E+00  0.2784211E+00 -0.1839116E+01  0.7381274E-01  0.2684586E+00
 -0.9146160E+01 -0.6111270E+01 -0.2310450E+00  0.2800560E+00 -0.1839280E+01  0.7429050E-01  0.2700227E+00
 -0.8503110E+01 -0.6978330E+01 -0.2310450E+00  0.2800010E+00 -0.1839203E+01  0.7425488E-01  0.2699755E+00
 -0.7778170E+01 -0.7778180E+01 -0.2310450E+00  0.2778184E+00 -0.1839112E+01  0.7365181E-01  0.2678777E+00
 -0.6978330E+01 -0.8503110E+01 -0.2310450E+00  0.2737229E+00 -0.1838948E+01  0.7252289E-01  0.2639406E+00
 -0.6111270E+01 -0.9146170E+01 -0.2310450E+00  0.2675476E+00 -0.1839009E+01  0.7090233E-01  0.2579818E+00
 -0.5185360E+01 -0.9701130E+01 -0.2310450E+00  0.2597848E+00 -0.1839262E+01  0.6890851E-01  0.2504791E+00
 -0.4209510E+01 -0.1016270E+02 -0.2310450E+00  0.2501243E+00 -0.1840291E+01  0.6659414E-01  0.2410963E+00
 -0.3193130E+01 -0.1052630E+02 -0.2310450E+00  0.2388206E+00 -0.1842411E+01  0.6407255E-01  0.2300651E+00
 -0.2145990E+01 -0.1078860E+02 -0.2310450E+00  0.2257966E+00 -0.1846425E+01  0.6145095E-01  0.2172737E+00
 -0.1078190E+01 -0.1094700E+02 -0.2310450E+00  0.2115576E+00 -0.1852745E+01  0.5886126E-01  0.2032043E+00
  0.1311740E-06 -0.1100000E+02 -0.2310450E+00  0.1959967E+00 -0.1862873E+01  0.5643566E-01  0.1876958E+00
  0.1078190E+01 -0.1094700E+02 -0.2310450E+00  0.1793952E+00 -0.1878263E+01  0.5429306E-01  0.1709822E+00
  0.2145990E+01 -0.1078860E+02 -0.2310450E+00  0.1618410E+00 -0.1901491E+01  0.5254986E-01  0.1530720E+00
  0.3193140E+01 -0.1052630E+02 -0.2310450E+00  0.1438362E+00 -0.1935251E+01  0.5126892E-01  0.1343888E+00
  0.4209520E+01 -0.1016270E+02 -0.2310450E+00  0.1256254E+00 -0.1985198E+01  0.5058206E-01  0.1149921E+00
  0.5185360E+01 -0.9701130E+01 -0.2310450E+00  0.1076930E+00 -0.2059304E+01  0.5054129E-01  0.9509654E-01
  0.6111270E+01 -0.9146160E+01 -0.2310450E+00  0.9066636E-01 -0.2170815E+01  0.5119549E-01  0.7482921E-01
  0.6978330E+01 -0.8503110E+01 -0.2310450E+00  0.7566144E-01 -0.2337558E+01  0.5249442E-01  0.5448844E-01
  0.7778180E+01 -0.7778170E+01 -0.2310450E+00  0.6440167E-01 -0.2579252E+01  0.5448441E-01  0.3433692E-01
  0.8503120E+01 -0.6978320E+01 -0.2310450E+00  0.5893206E-01 -0.2892610E+01  0.5711481E-01  0.1452192E-01
  0.9146170E+01 -0.6111270E+01 -0.2310450E+00  0.6051669E-01  0.3063020E+01  0.6032998E-01 -0.4750042E-02
  0.9701130E+01 -0.5185360E+01 -0.2310450E+00  0.6812766E-01  0.2791314E+01  0.6399076E-01 -0.2337865E-01
  0.1016270E+02 -0.4209520E+01 -0.2310450E+00  0.7940175E-01  0.2599628E+01  0.6802322E-01 -0.4095704E-01
  0.1052630E+02 -0.3193130E+01 -0.2310450E+00  0.9235067E-01  0.2470147E+01  0.7230348E-01 -0.5745305E-01
  0.1078860E+02 -0.2145990E+01 -0.2310450E+00  0.1056313E+00  0.2383412E+01  0.7669760E-01 -0.7263224E-01
  0.1094700E+02 -0.1078180E+01 -0.2310450E+00  0.1186278E+00  0.2323077E+01  0.8105904E-01 -0.8661395E-01
  0.1100000E+02  0.0000000E+00 -0.4105000E+00  0.1299877E+00  0.2281626E+01  0.8481213E-01 -0.9850732E-01
  0.1094700E+02  0.1078190E+01 -0.4105000E+00  0.1406642E+00  0.2252706E+01  0.8865735E-01 -0.1092076E+00
  0.1078860E+02  0.2145990E+01 -0.4105000E+00  0.1497709E+00  0.2232745E+01  0.9205747E-01 -0.1181387E+00
  0.1052630E+02  0.3193130E+01 -0.4105000E+00  0.1573199E+00  0.2218544E+01  0.9492549E-01 -0.1254539E+00
  0.1016270E+02  0.4209520E+01 -0.4105000E+00  0.1629375E+00  0.2209422E+01  0.9712587E-01 -0.1308251E+00
  0.9701130E+01  0.5185360E+01 -0.4105000E+00  0.1667210E+00  0.2203696E+01  0.9861295E-01 -0.1344298E+00
  0.9146170E+01  0.6111270E+01 -0.4105000E+00  0.1684413E+00  0.2201361E+01  0.9931317E-01 -0.1360492E+00
  0.8503110E+01  0.6978330E+01 -0.4105000E+00  0.1683147E+00  0.2201436E+01  0.9924871E-01 -0.1359395E+00
  0.7778170E+01  0.7778170E+01 -0.4105000E+00  0.1660970E+00  0.2204673E+01  0.9837480E-01 -0.1338306E+00
  0.6978330E+01  0.8503110E+01 -0.4105000E+00  0.1619954E+00  0.2210818E+01  0.9674576E-01 -0.1299337E+00
  0.6111270E+01  0.9146170E+01 -0.4105000E+00  0.1558884E+00  0.2221173E+01  0.9438828E-01 -0.1240647E+00
  0.5185360E+01  0.9701130E+01 -0.4105000E+00  0.1481221E+00  0.2236002E+01  0.9142406E-01 -0.1165410E+00
  0.4209520E+01  0.1016270E+02 -0.4105000E+00  0.1386309E+00  0.2257779E+01  0.8792070E-01 -0.1071843E+00
  0.3193130E+01  0.1052630E+02 -0.4105000E+00  0.1277357E+00  0.2288520E+01  0.8400813E-01 -0.9622392E-01
  0.2145990E+01  0.1078860E+02 -0.4105000E+00  0.1155285E+00  0.2333247E+01  0.7979503E-01 -0.8354394E-01
  0.1078190E+01  0.1094700E+02 -0.4105000E+00  0.1025720E+00  0.2397175E+01  0.7543992E-01 -0.6949700E-01
 -0.4808250E-06  0.1100000E+02 -0.4105000E+00  0.8929682E-01  0.2491512E+01  0.7108340E-01 -0.5404695E-01
 -0.1078190E+01  0.1094700E+02 -0.4105000E+00  0.7662453E-01  0.2631346E+01  0.6686441E-01 -0.3742284E-01
 -0.2145990E+01  0.1078860E+02 -0.4105000E+00  0.6590059E-01  0.2839188E+01  0.6291023E-01 -0.1962626E-01
 -0.3193130E+01  0.1052630E+02 -0.4105000E+00  0.5933876E-01  0.3124656E+01  0.5933025E-01 -0.1004921E-02
 -0.4209520E+01  0.1016270E+02 -0.4105000E+00  0.5916292E-01 -0.2826916E+01  0.5625782E-01  0.1831144E-01
 -0.5185370E+01  0.9701130E+01 -0.4105000E+00  0.6590515E-01 -0.2524908E+01  0.5376544E-01  0.3811517E-01
 -0.6111270E+01  0.9146160E+01 -0.4105000E+00  0.7805896E-01 -0.2298515E+01  0.5192230E-01  0.5828616E-01
 -0.6978330E+01  0.8503120E+01 -0.4105000E+00  0.9349651E-01 -0.2144325E+01  0.5073117E-01  0.7853626E-01
 -0.7778170E+01  0.7778170E+01 -0.4105000E+00  0.1106610E+00 -0.2042032E+01  0.5023877E-01  0.9859984E-01