 VARIABLES="X" "Y" "Z" "abs(eta) (m)" "angle(phi) (rad)" "PRE1" "PRE2"
ZONE N=   3200 ,E =    3136 ,F=FEPOINT,ET=QUADRILATERAL
  0.1010000E+02  0.0000000E+00  0.0000000E+00  0.1217673E+00 -0.2192731E+01  0.7094262E-01  0.9896671E-01
  0.1005140E+02  0.9899730E+00  0.0000000E+00  0.1531006E+00 -0.1962669E+01  0.5847220E-01  0.1414949E+00
  0.9905930E+01  0.1970410E+01  0.0000000E+00  0.1908912E+00 -0.1827276E+01  0.4842460E-01  0.1846469E+00
  0.9665100E+01  0.2931880E+01  0.0000000E+00  0.2312903E+00 -0.1749324E+01  0.4107263E-01  0.2276142E+00
  0.9331180E+01  0.3865100E+01  0.0000000E+00  0.2720197E+00 -0.1704502E+01  0.3626231E-01  0.2695918E+00
  0.8907400E+01  0.4761110E+01  0.0000000E+00  0.3119282E+00 -0.1680673E+01  0.3420466E-01  0.3100471E+00
  0.8397840E+01  0.5611260E+01  0.0000000E+00  0.3508739E+00 -0.1669338E+01  0.3451992E-01  0.3491717E+00
  0.7807410E+01  0.6407370E+01  0.0000000E+00  0.3879874E+00 -0.1666080E+01  0.3691310E-01  0.3862275E+00
  0.7141780E+01  0.7141780E+01  0.0000000E+00  0.4227128E+00 -0.1667498E+01  0.4081338E-01  0.4207379E+00
  0.6407370E+01  0.7807410E+01  0.0000000E+00  0.4540604E+00 -0.1672517E+01  0.4610759E-01  0.4517134E+00
  0.5611260E+01  0.8397840E+01  0.0000000E+00  0.4828801E+00 -0.1679600E+01  0.5243567E-01  0.4800247E+00
  0.4761110E+01  0.8907410E+01  0.0000000E+00  0.5087367E+00 -0.1687447E+01  0.5920979E-01  0.5052794E+00
  0.3865100E+01  0.9331180E+01  0.0000000E+00  0.5314329E+00 -0.1695023E+01  0.6584843E-01  0.5273376E+00
  0.2931870E+01  0.9665100E+01  0.0000000E+00  0.5496749E+00 -0.1702170E+01  0.7200553E-01  0.5449382E+00
  0.1970410E+01  0.9905930E+01  0.0000000E+00  0.5647765E+00 -0.1708633E+01  0.7760080E-01  0.5594199E+00
  0.9899730E+00  0.1005140E+02  0.0000000E+00  0.5765294E+00 -0.1713765E+01  0.8214538E-01  0.5706472E+00
 -0.4414850E-06  0.1010000E+02  0.0000000E+00  0.5849319E+00 -0.1717314E+01  0.8539676E-01  0.5786645E+00
 -0.9899740E+00  0.1005140E+02  0.0000000E+00  0.5884739E+00 -0.1719138E+01  0.8697545E-01  0.5820110E+00
 -0.1970410E+01  0.9905930E+01  0.0000000E+00  0.5886797E+00 -0.1719332E+01  0.8711870E-01  0.5821976E+00
 -0.2931880E+01  0.9665100E+01  0.0000000E+00  0.5854685E+00 -0.1717725E+01  0.8571309E-01  0.5791603E+00
 -0.3865100E+01  0.9331180E+01  0.0000000E+00  0.5789340E+00 -0.1714583E+01  0.8295662E-01  0.5729596E+00
 -0.4761110E+01  0.8907400E+01  0.0000000E+00  0.5675888E+00 -0.1709850E+01  0.7867143E-01  0.5621102E+00
 -0.5611260E+01  0.8397840E+01  0.0000000E+00  0.5528980E+00 -0.1703661E+01  0.7324466E-01  0.5480250E+00
 -0.6407370E+01  0.7807410E+01  0.0000000E+00  0.5349085E+00 -0.1696397E+01  0.6700831E-01  0.5306948E+00
 -0.7141780E+01  0.7141780E+01  0.0000000E+00  0.5138568E+00 -0.1688798E+01  0.6049547E-01  0.5102834E+00
 -0.7807410E+01  0.6407370E+01  0.0000000E+00  0.4884966E+00 -0.1681265E+01  0.5385370E-01  0.4855190E+00
 -0.8397840E+01  0.5611260E+01  0.0000000E+00  0.4600739E+00 -0.1674005E+01  0.4739916E-01  0.4576257E+00
 -0.8907410E+01  0.4761110E+01  0.0000000E+00  0.4288220E+00 -0.1668286E+01  0.4173972E-01  0.4267858E+00
 -0.9331180E+01  0.3865100E+01  0.0000000E+00  0.3952548E+00 -0.1665668E+01  0.3744246E-01  0.3934774E+00
 -0.9665100E+01  0.2931880E+01  0.0000000E+00  0.3586546E+00 -0.1668241E+01  0.3489362E-01  0.3569532E+00
 -0.9905930E+01  0.1970410E+01  0.0000000E+00  0.3199421E+00 -0.1677720E+01  0.3414429E-01  0.3181149E+00
 -0.1005140E+02  0.9899730E+00  0.0000000E+00  0.2798294E+00 -0.1698767E+01  0.3571242E-01  0.2775412E+00
 -0.1010000E+02 -0.8829700E-06  0.0000000E+00  0.2393284E+00 -0.1737827E+01  0.3978958E-01  0.2359977E+00
 -0.1005140E+02 -0.9899740E+00  0.0000000E+00  0.1989979E+00 -0.1807788E+01  0.4672065E-01  0.1934356E+00
 -0.9905930E+01 -0.1970410E+01  0.0000000E+00  0.1604625E+00 -0.1928860E+01  0.5623589E-01  0.1502855E+00
 -0.9665100E+01 -0.2931880E+01  0.0000000E+00  0.1272789E+00 -0.2137923E+01  0.6837568E-01  0.1073531E+00
 -0.9331180E+01 -0.3865100E+01  0.0000000E+00  0.1055027E+00 -0.2472451E+01  0.8275151E-01  0.6544465E-01
 -0.8907400E+01 -0.4761110E+01  0.0000000E+00  0.1025039E+00 -0.2893883E+01  0.9937510E-01  0.2513233E-01
 -0.8397840E+01 -0.5611260E+01  0.0000000E+00  0.1186320E+00  0.3024822E+01  0.1178241E+00 -0.1382134E-01
 -0.7807400E+01 -0.6407370E+01  0.0000000E+00  0.1466177E+00  0.2788582E+01  0.1375767E+00 -0.5068927E-01
 -0.7141780E+01 -0.7141780E+01  0.0000000E+00  0.1792943E+00  0.2647672E+01  0.1578652E+00 -0.8500013E-01
 -0.6407370E+01 -0.7807410E+01  0.0000000E+00  0.2125466E+00  0.2565801E+01  0.1782759E+00 -0.1157315E+00
 -0.5611260E+01 -0.8397850E+01  0.0000000E+00  0.2451493E+00  0.2514770E+01  0.1985453E+00 -0.1437984E+00
 -0.4761110E+01 -0.8907410E+01  0.0000000E+00  0.2756546E+00  0.2482428E+01  0.2179061E+00 -0.1688266E+00
 -0.3865100E+01 -0.9331190E+01  0.0000000E+00  0.3031242E+00  0.2461264E+01  0.2356384E+00 -0.1906800E+00
 -0.2931870E+01 -0.9665100E+01  0.0000000E+00  0.3260634E+00  0.2449531E+01  0.2510467E+00 -0.2080694E+00
 -0.1970410E+01 -0.9905930E+01  0.0000000E+00  0.3453825E+00  0.2442076E+01  0.2642706E+00 -0.2223738E+00
 -0.9899710E+00 -0.1005140E+02  0.0000000E+00  0.3605219E+00  0.2437167E+01  0.2747118E+00 -0.2334725E+00
  0.1204410E-06 -0.1010000E+02  0.0000000E+00  0.3712761E+00  0.2433723E+01  0.2820765E+00 -0.2414100E+00
  0.9899760E+00 -0.1005140E+02  0.0000000E+00  0.3761130E+00  0.2433239E+01  0.2856331E+00 -0.2446931E+00
  0.1970410E+01 -0.9905930E+01  0.0000000E+00  0.3764531E+00  0.2433402E+01  0.2859313E+00 -0.2448678E+00
  0.2931880E+01 -0.9665100E+01  0.0000000E+00  0.3721584E+00  0.2434094E+01  0.2828366E+00 -0.2418787E+00
  0.3865100E+01 -0.9331180E+01  0.0000000E+00  0.3634431E+00  0.2435674E+01  0.2765860E+00 -0.2357777E+00
  0.4761110E+01 -0.8907410E+01  0.0000000E+00  0.3489620E+00  0.2440724E+01  0.2667054E+00 -0.2250394E+00
  0.5611260E+01 -0.8397840E+01  0.0000000E+00  0.3302305E+00  0.2448018E+01  0.2539360E+00 -0.2111130E+00
  0.6407370E+01 -0.7807410E+01  0.0000000E+00  0.3075686E+00  0.2459139E+01  0.2386817E+00 -0.1939833E+00
  0.7141780E+01 -0.7141780E+01  0.0000000E+00  0.2816260E+00  0.2476496E+01  0.2215995E+00 -0.1738012E+00
  0.7807410E+01 -0.6407370E+01  0.0000000E+00  0.2516710E+00  0.2506767E+01  0.2026392E+00 -0.1492503E+00
  0.8397840E+01 -0.5611260E+01  0.0000000E+00  0.2192629E+00  0.2553795E+01  0.1824627E+00 -0.1215878E+00
  0.8907410E+01 -0.4761110E+01  0.0000000E+00  0.1856527E+00  0.2629388E+01  0.1618272E+00 -0.9098835E-01
  0.9331180E+01 -0.3865100E+01  0.0000000E+00  0.1528864E+00  0.2753090E+01  0.1414929E+00 -0.5791378E-01
  0.9665100E+01 -0.2931870E+01  0.0000000E+00  0.1236739E+00  0.2966275E+01  0.1217781E+00 -0.2157132E-01
  0.9905930E+01 -0.1970410E+01  0.0000000E+00  0.1044229E+00 -0.2977080E+01  0.1030131E+00  0.1710155E-01
  0.1005140E+02 -0.9899690E+00  0.0000000E+00  0.1034106E+00 -0.2551593E+01  0.8592814E-01  0.5753358E-01
  0.1010000E+02  0.0000000E+00 -0.2568960E-01  0.1215823E+00 -0.2192782E+01  0.7083998E-01  0.9881273E-01
  0.1005140E+02  0.9899730E+00 -0.2568960E-01  0.1528840E+00 -0.1962669E+01  0.5838950E-01  0.1412947E+00
  0.9905930E+01  0.1970410E+01 -0.2568960E-01  0.1906336E+00 -0.1827391E+01  0.4838062E-01  0.1843922E+00
  0.9665100E+01  0.2931880E+01 -0.2568960E-01  0.2309822E+00 -0.1749300E+01  0.4101246E-01  0.2273120E+00
  0.9331180E+01  0.3865100E+01 -0.2568960E-01  0.2716687E+00 -0.1704464E+01  0.3620541E-01  0.2692453E+00
  0.8907400E+01  0.4761110E+01 -0.2568960E-01  0.3115261E+00 -0.1680660E+01  0.3415669E-01  0.3096479E+00
  0.8397840E+01  0.5611260E+01 -0.2568960E-01  0.3503805E+00 -0.1669402E+01  0.3449339E-01  0.3486786E+00
  0.7807410E+01  0.6407370E+01 -0.2568960E-01  0.3874954E+00 -0.1666082E+01  0.3686687E-01  0.3857377E+00
  0.7141780E+01  0.7141780E+01 -0.2568960E-01  0.4221902E+00 -0.1667499E+01  0.4076326E-01  0.4202177E+00
  0.6407370E+01  0.7807410E+01 -0.2568960E-01  0.4534898E+00 -0.1672532E+01  0.4605638E-01  0.4511450E+00
  0.5611260E+01  0.8397840E+01 -0.2568960E-01  0.4821957E+00 -0.1679637E+01  0.5237890E-01  0.4793424E+00
  0.4761110E+01  0.8907410E+01 -0.2568960E-01  0.5081000E+00 -0.1687471E+01  0.5914782E-01  0.5046455E+00
  0.3865100E+01  0.9331180E+01 -0.2568960E-01  0.5307832E+00 -0.1695052E+01  0.6578326E-01  0.5266910E+00
  0.2931870E+01  0.9665100E+01 -0.2568960E-01  0.5489872E+00 -0.1702204E+01  0.7193342E-01  0.5442541E+00
  0.1970410E+01  0.9905930E+01 -0.2568960E-01  0.5639729E+00 -0.1708658E+01  0.7750413E-01  0.5586220E+00
  0.9899730E+00  0.1005140E+02 -0.2568960E-01  0.5758104E+00 -0.1713803E+01  0.8206425E-01  0.5699325E+00
 -0.4414850E-06  0.1010000E+02 -0.2568960E-01  0.5842192E+00 -0.1717357E+01  0.8531719E-01  0.5779560E+00
 -0.9899740E+00  0.1005140E+02 -0.2568960E-01  0.5877408E+00 -0.1719178E+01  0.8689015E-01  0.5812825E+00
 -0.1970410E+01  0.9905930E+01 -0.2568960E-01  0.5878416E+00 -0.1719354E+01  0.8700732E-01  0.5813669E+00
 -0.2931880E+01  0.9665100E+01 -0.2568960E-01  0.5847372E+00 -0.1717764E+01  0.8562865E-01  0.5784335E+00
 -0.3865100E+01  0.9331180E+01 -0.2568960E-01  0.5782295E+00 -0.1714624E+01  0.8287878E-01  0.5722591E+00
 -0.4761110E+01  0.8907400E+01 -0.2568960E-01  0.5668802E+00 -0.1709886E+01  0.7859337E-01  0.5614056E+00
 -0.5611260E+01  0.8397840E+01 -0.2568960E-01  0.5521122E+00 -0.1703687E+01  0.7315490E-01  0.5472443E+00
 -0.6407370E+01  0.7807410E+01 -0.2568960E-01  0.5342395E+00 -0.1696427E+01  0.6694043E-01  0.5300291E+00
 -0.7141780E+01  0.7141780E+01 -0.2568960E-01  0.5132285E+00 -0.1688823E+01  0.6043401E-01  0.5096579E+00
 -0.7807410E+01  0.6407370E+01 -0.2568960E-01  0.4878835E+00 -0.1681285E+01  0.5379616E-01  0.4849086E+00
 -0.8397840E+01  0.5611260E+01 -0.2568960E-01  0.4594220E+00 -0.1674045E+01  0.4735054E-01  0.4569753E+00
 -0.8907410E+01  0.4761110E+01 -0.2568960E-01  0.4282814E+00 -0.1668297E+01  0.4169163E-01  0.4262473E+00
 -0.9331180E+01  0.3865100E+01 -0.2568960E-01  0.3947634E+00 -0.1665662E+01  0.3739354E-01  0.3929884E+00
 -0.9665100E+01  0.2931880E+01 -0.2568960E-01  0.3581975E+00 -0.1668237E+01  0.3484776E-01  0.3564984E+00
 -0.9905930E+01  0.1970410E+01 -0.2568960E-01  0.3194945E+00 -0.1677789E+01  0.3411854E-01  0.3176675E+00
 -0.1005140E+02  0.9899730E+00 -0.2568960E-01  0.2794650E+00 -0.1698750E+01  0.3566122E-01  0.2771804E+00
 -0.1010000E+02 -0.8829700E-06 -0.2568960E-01  0.2390135E+00 -0.1737782E+01  0.3972658E-01  0.2356889E+00
 -0.1005140E+02 -0.9899740E+00 -0.2568960E-01  0.1987275E+00 -0.1807766E+01  0.4665286E-01  0.1931739E+00
 -0.9905930E+01 -0.1970410E+01 -0.2568960E-01  0.1602515E+00 -0.1928987E+01  0.5618107E-01  0.1500808E+00
 -0.9665100E+01 -0.2931880E+01 -0.2568960E-01  0.1270929E+00 -0.2137968E+01  0.6828049E-01  0.1071932E+00
 -0.9331180E+01 -0.3865100E+01 -0.2568960E-01  0.1053399E+00 -0.2472631E+01  0.8263553E-01  0.6532883E-01
 -0.8907400E+01 -0.4761110E+01 -0.2568960E-01  0.1023606E+00 -0.2894164E+01  0.9924321E-01  0.2506932E-01
 -0.8397840E+01 -0.5611260E+01 -0.2568960E-01  0.1184857E+00  0.3024957E+01  0.1176807E+00 -0.1378834E-01
 -0.7807400E+01 -0.6407370E+01 -0.2568960E-01  0.1464432E+00  0.2788342E+01  0.1374008E+00 -0.5066195E-01
 -0.7141780E+01 -0.7141780E+01 -0.2568960E-01  0.1790928E+00  0.2647425E+01  0.1576668E+00 -0.8494360E-01
 -0.6407370E+01 -0.7807410E+01 -0.2568960E-01  0.2123032E+00  0.2565650E+01  0.1780543E+00 -0.1156258E+00
 -0.5611260E+01 -0.8397850E+01 -0.2568960E-01  0.2448079E+00  0.2514874E+01  0.1982837E+00 -0.1435774E+00
 -0.4761110E+01 -0.8907410E+01 -0.2568960E-01  0.2753396E+00  0.2482324E+01  0.2176396E+00 -0.1686562E+00
 -0.3865100E+01 -0.9331190E+01 -0.2568960E-01  0.3027921E+00  0.2461146E+01  0.2353578E+00 -0.1904987E+00
 -0.2931870E+01 -0.9665100E+01 -0.2568960E-01  0.3256906E+00  0.2449456E+01  0.2507440E+00 -0.2078505E+00
 -0.1970410E+01 -0.9905930E+01 -0.2568960E-01  0.3448930E+00  0.2442151E+01  0.2639127E+00 -0.2220389E+00
 -0.9899710E+00 -0.1005140E+02 -0.2568960E-01  0.3601087E+00  0.2437105E+01  0.2743826E+00 -0.2332220E+00
  0.1204410E-06 -0.1010000E+02 -0.2568960E-01  0.3708680E+00  0.2433642E+01  0.2817471E+00 -0.2411673E+00
  0.9899760E+00 -0.1005140E+02 -0.2568960E-01  0.3756813E+00  0.2433183E+01  0.2852914E+00 -0.2444284E+00
  0.1970410E+01 -0.9905930E+01 -0.2568960E-01  0.3759180E+00  0.2433470E+01  0.2855413E+00 -0.2445005E+00
  0.2931880E+01 -0.9665100E+01 -0.2568960E-01  0.3717312E+00  0.2434036E+01  0.2824981E+00 -0.2416173E+00
  0.3865100E+01 -0.9331180E+01 -0.2568960E-01  0.3630436E+00  0.2435590E+01  0.2762621E+00 -0.2355418E+00
  0.4761110E+01 -0.8907410E+01 -0.2568960E-01  0.3485623E+00  0.2440656E+01  0.2663848E+00 -0.2247995E+00
  0.5611260E+01 -0.8397840E+01 -0.2568960E-01  0.3297632E+00  0.2448097E+01  0.2535932E+00 -0.2107944E+00
  0.6407370E+01 -0.7807410E+01 -0.2568960E-01  0.3072174E+00  0.2459054E+01  0.2383928E+00 -0.1937819E+00
  0.7141780E+01 -0.7141780E+01 -0.2568960E-01  0.2813175E+00  0.2476363E+01  0.2213336E+00 -0.1736403E+00
  0.7807410E+01 -0.6407370E+01 -0.2568960E-01  0.2513833E+00  0.2506647E+01  0.2023897E+00 -0.1491039E+00
  0.8397840E+01 -0.5611260E+01 -0.2568960E-01  0.2189603E+00  0.2553911E+01  0.1822249E+00 -0.1213988E+00
  0.8907410E+01 -0.4761110E+01 -0.2568960E-01  0.1854387E+00  0.2629207E+01  0.1616242E+00 -0.9091279E-01
  0.9331180E+01 -0.3865100E+01 -0.2568960E-01  0.1527095E+00  0.2752795E+01  0.1413121E+00 -0.5788849E-01
  0.9665100E+01 -0.2931870E+01 -0.2568960E-01  0.1235198E+00  0.2965992E+01  0.1216203E+00 -0.2157879E-01
  0.9905930E+01 -0.1970410E+01 -0.2568960E-01  0.1043005E+00 -0.2977000E+01  0.1028909E+00  0.1708964E-01
  0.1005140E+02 -0.9899690E+00 -0.2568960E-01  0.1032578E+00 -0.2551787E+01  0.8581229E-01  0.5743197E-01
  0.1010000E+02  0.0000000E+00 -0.1027320E+00  0.1210464E+00 -0.2192899E+01  0.7053923E-01  0.9836897E-01
  0.1005140E+02  0.9899730E+00 -0.1027320E+00  0.1522444E+00 -0.1962685E+01  0.5814739E-01  0.1407027E+00
  0.9905930E+01  0.1970410E+01 -0.1027320E+00  0.1898622E+00 -0.1827649E+01  0.4823223E-01  0.1836336E+00
  0.9665100E+01  0.2931880E+01 -0.1027320E+00  0.2300539E+00 -0.1749265E+01  0.4083990E-01  0.2263998E+00
  0.9331180E+01  0.3865100E+01 -0.1027320E+00  0.2706015E+00 -0.1704388E+01  0.3604254E-01  0.2681904E+00
  0.8907400E+01  0.4761110E+01 -0.1027320E+00  0.3103023E+00 -0.1680650E+01  0.3401941E-01  0.3084318E+00
  0.8397840E+01  0.5611260E+01 -0.1027320E+00  0.3489202E+00 -0.1669543E+01  0.3439867E-01  0.3472205E+00
  0.7807410E+01  0.6407370E+01 -0.1027320E+00  0.3859887E+00 -0.1666097E+01  0.3672927E-01  0.3842372E+00
  0.7141780E+01  0.7141780E+01 -0.1027320E+00  0.4205829E+00 -0.1667513E+01  0.4061396E-01  0.4186173E+00
  0.6407370E+01  0.7807410E+01 -0.1027320E+00  0.4517373E+00 -0.1672579E+01  0.4589957E-01  0.4493994E+00
  0.5611260E+01  0.8397840E+01 -0.1027320E+00  0.4801743E+00 -0.1679728E+01  0.5220278E-01  0.4773282E+00
  0.4761110E+01  0.8907410E+01 -0.1027320E+00  0.5061429E+00 -0.1687536E+01  0.5895279E-01  0.5026979E+00
  0.3865100E+01  0.9331180E+01 -0.1027320E+00  0.5287806E+00 -0.1695129E+01  0.6557562E-01  0.5246988E+00
  0.2931870E+01  0.9665100E+01 -0.1027320E+00  0.5468764E+00 -0.1702289E+01  0.7170313E-01  0.5421553E+00
  0.1970410E+01  0.9905930E+01 -0.1027320E+00  0.5616050E+00 -0.1708727E+01  0.7721704E-01  0.5562713E+00
  0.9899730E+00  0.1005140E+02 -0.1027320E+00  0.5735976E+00 -0.1713897E+01  0.8180260E-01  0.5677345E+00
 -0.4414850E-06  0.1010000E+02 -0.1027320E+00  0.5820189E+00 -0.1717465E+01  0.8505820E-01  0.5757700E+00
 -0.9899740E+00  0.1005140E+02 -0.1027320E+00  0.5854826E+00 -0.1719278E+01  0.8661448E-01  0.5790404E+00
 -0.1970410E+01  0.9905930E+01 -0.1027320E+00  0.5853729E+00 -0.1719417E+01  0.8667862E-01  0.5789199E+00
 -0.2931880E+01  0.9665100E+01 -0.1027320E+00  0.5824912E+00 -0.1717864E+01  0.8535710E-01  0.5762032E+00
 -0.3865100E+01  0.9331180E+01 -0.1027320E+00  0.5760512E+00 -0.1714728E+01  0.8262634E-01  0.5700946E+00
 -0.4761110E+01  0.8907400E+01 -0.1027320E+00  0.5647018E+00 -0.1709977E+01  0.7834185E-01  0.5592412E+00
 -0.5611260E+01  0.8397840E+01 -0.1027320E+00  0.5497950E+00 -0.1703759E+01  0.7288679E-01  0.5449422E+00
 -0.6407370E+01  0.7807410E+01 -0.1027320E+00  0.5321832E+00 -0.1696507E+01  0.6672488E-01  0.5279836E+00
 -0.7141780E+01  0.7141780E+01 -0.1027320E+00  0.5112899E+00 -0.1688890E+01  0.6023976E-01  0.5077288E+00
 -0.7807410E+01  0.6407370E+01 -0.1027320E+00  0.4860027E+00 -0.1681342E+01  0.5361610E-01  0.4830362E+00
 -0.8397840E+01  0.5611260E+01 -0.1027320E+00  0.4574967E+00 -0.1674143E+01  0.4719658E-01  0.4550557E+00
 -0.8907410E+01  0.4761110E+01 -0.1027320E+00  0.4266229E+00 -0.1668333E+01  0.4154545E-01  0.4245951E+00
 -0.9331180E+01  0.3865100E+01 -0.1027320E+00  0.3932548E+00 -0.1665660E+01  0.3724951E-01  0.3914866E+00
 -0.9665100E+01  0.2931880E+01 -0.1027320E+00  0.3567996E+00 -0.1668240E+01  0.3471299E-01  0.3551070E+00
 -0.9905930E+01  0.1970410E+01 -0.1027320E+00  0.3181656E+00 -0.1677948E+01  0.3402679E-01  0.3163409E+00
 -0.1005140E+02  0.9899730E+00 -0.1027320E+00  0.2783599E+00 -0.1698728E+01  0.3551402E-01  0.2760851E+00
 -0.1010000E+02 -0.8829700E-06 -0.1027320E+00  0.2380621E+00 -0.1737689E+01  0.3954669E-01  0.2347544E+00
 -0.1005140E+02 -0.9899740E+00 -0.1027320E+00  0.1979182E+00 -0.1807736E+01  0.4645705E-01  0.1923886E+00
 -0.9905930E+01 -0.1970410E+01 -0.1027320E+00  0.1596143E+00 -0.1929269E+01  0.5599972E-01  0.1494682E+00
 -0.9665100E+01 -0.2931880E+01 -0.1027320E+00  0.1265501E+00 -0.2138079E+01  0.6800071E-01  0.1067278E+00
 -0.9331180E+01 -0.3865100E+01 -0.1027320E+00  0.1048701E+00 -0.2473024E+01  0.8229265E-01  0.6500513E-01
 -0.8907400E+01 -0.4761110E+01 -0.1027320E+00  0.1019399E+00 -0.2894759E+01  0.9885016E-01  0.2490748E-01
 -0.8397840E+01 -0.5611260E+01 -0.1027320E+00  0.1180381E+00  0.3025242E+01  0.1172400E+00 -0.1370281E-01
 -0.7807400E+01 -0.6407370E+01 -0.1027320E+00  0.1459015E+00  0.2787860E+01  0.1368682E+00 -0.5054053E-01
 -0.7141780E+01 -0.7141780E+01 -0.1027320E+00  0.1784575E+00  0.2646905E+01  0.1570635E+00 -0.8472385E-01
 -0.6407370E+01 -0.7807410E+01 -0.1027320E+00  0.2115380E+00  0.2565357E+01  0.1773787E+00 -0.1152610E+00
 -0.5611260E+01 -0.8397850E+01 -0.1027320E+00  0.2437993E+00  0.2515107E+01  0.1975002E+00 -0.1429399E+00
 -0.4761110E+01 -0.8907410E+01 -0.1027320E+00  0.2743469E+00  0.2482127E+01  0.2168217E+00 -0.1680909E+00
 -0.3865100E+01 -0.9331190E+01 -0.1027320E+00  0.3017361E+00  0.2460909E+01  0.2344920E+00 -0.1898899E+00
 -0.2931870E+01 -0.9665100E+01 -0.1027320E+00  0.3245158E+00  0.2449317E+01  0.2498110E+00 -0.2071353E+00
 -0.1970410E+01 -0.9905930E+01 -0.1027320E+00  0.3434547E+00  0.2442322E+01  0.2628500E+00 -0.2210679E+00
 -0.9899710E+00 -0.1005140E+02 -0.1027320E+00  0.3588075E+00  0.2436993E+01  0.2733651E+00 -0.2324099E+00
  0.1204410E-06 -0.1010000E+02 -0.1027320E+00  0.3695723E+00  0.2433489E+01  0.2807259E+00 -0.2403677E+00
  0.9899760E+00 -0.1005140E+02 -0.1027320E+00  0.3743233E+00  0.2433085E+01  0.2842363E+00 -0.2435727E+00
  0.1970410E+01 -0.9905930E+01 -0.1027320E+00  0.3743473E+00  0.2433626E+01  0.2843864E+00 -0.2434343E+00
  0.2931880E+01 -0.9665100E+01 -0.1027320E+00  0.3703876E+00  0.2433936E+01  0.2814528E+00 -0.2407723E+00
  0.3865100E+01 -0.9331180E+01 -0.1027320E+00  0.3617758E+00  0.2435429E+01  0.2752596E+00 -0.2347635E+00
  0.4761110E+01 -0.8907410E+01 -0.1027320E+00  0.3473032E+00  0.2440535E+01  0.2653954E+00 -0.2240197E+00
  0.5611260E+01 -0.8397840E+01 -0.1027320E+00  0.3283896E+00  0.2448276E+01  0.2525744E+00 -0.2098712E+00
  0.6407370E+01 -0.7807410E+01 -0.1027320E+00  0.3061100E+00  0.2458898E+01  0.2375032E+00 -0.1931206E+00
  0.7141780E+01 -0.7141780E+01 -0.1027320E+00  0.2803363E+00  0.2476094E+01  0.2205150E+00 -0.1730940E+00
  0.7807410E+01 -0.6407370E+01 -0.1027320E+00  0.2504769E+00  0.2506417E+01  0.2016258E+00 -0.1486127E+00
  0.8397840E+01 -0.5611260E+01 -0.1027320E+00  0.2180639E+00  0.2554167E+01  0.1815099E+00 -0.1208554E+00
  0.8907410E+01 -0.4761110E+01 -0.1027320E+00  0.1847674E+00  0.2628852E+01  0.1610069E+00 -0.9064092E-01
  0.9331180E+01 -0.3865100E+01 -0.1027320E+00  0.1521570E+00  0.2752168E+01  0.1407647E+00 -0.5776733E-01
  0.9665100E+01 -0.2931870E+01 -0.1027320E+00  0.1230488E+00  0.2965420E+01  0.1211442E+00 -0.2156592E-01
  0.9905930E+01 -0.1970410E+01 -0.1027320E+00  0.1039200E+00 -0.2976840E+01  0.1025128E+00  0.1704374E-01
  0.1005140E+02 -0.9899690E+00 -0.1027320E+00  0.1028149E+00 -0.2552204E+01  0.8546809E-01  0.5714995E-01
  0.1010000E+02  0.0000000E+00 -0.2310450E+00  0.1202025E+00 -0.2193233E+01  0.7008010E-01  0.9765974E-01
  0.1005140E+02  0.9899730E+00 -0.2310450E+00  0.1511983E+00 -0.1962801E+01  0.5776400E-01  0.1397292E+00
  0.9905930E+01  0.1970410E+01 -0.2310450E+00  0.1885785E+00 -0.1827650E+01  0.4790621E-01  0.1823920E+00
  0.9665100E+01  0.2931880E+01 -0.2310450E+00  0.2285202E+00 -0.1749278E+01  0.4057046E-01  0.2248900E+00
  0.9331180E+01  0.3865100E+01 -0.2310450E+00  0.2688136E+00 -0.1704414E+01  0.3581161E-01  0.2664175E+00
  0.8907400E+01  0.4761110E+01 -0.2310450E+00  0.3082753E+00 -0.1680669E+01  0.3380289E-01  0.3064165E+00
  0.8397840E+01  0.5611260E+01 -0.2310450E+00  0.3466663E+00 -0.1669548E+01  0.3417835E-01  0.3449773E+00
  0.7807410E+01  0.6407370E+01 -0.2310450E+00  0.3834876E+00 -0.1666128E+01  0.3650300E-01  0.3817464E+00
  0.7141780E+01  0.7141780E+01 -0.2310450E+00  0.4178550E+00 -0.1667565E+01  0.4037241E-01  0.4159001E+00
  0.6407370E+01  0.7807410E+01 -0.2310450E+00  0.4488297E+00 -0.1672638E+01  0.4563060E-01  0.4465041E+00
  0.5611260E+01  0.8397840E+01 -0.2310450E+00  0.4771153E+00 -0.1679787E+01  0.5189807E-01  0.4742843E+00
  0.4761110E+01  0.8907410E+01 -0.2310450E+00  0.5028938E+00 -0.1687605E+01  0.5860886E-01  0.4994669E+00
  0.3865100E+01  0.9331180E+01 -0.2310450E+00  0.5253698E+00 -0.1695210E+01  0.6519483E-01  0.5213090E+00
  0.2931870E+01  0.9665100E+01 -0.2310450E+00  0.5433729E+00 -0.1702378E+01  0.7129153E-01  0.5386758E+00
  0.1970410E+01  0.9905930E+01 -0.2310450E+00  0.5580442E+00 -0.1708819E+01  0.7677855E-01  0.5527372E+00
  0.9899730E+00  0.1005140E+02 -0.2310450E+00  0.5699277E+00 -0.1713990E+01  0.8133126E-01  0.5640947E+00
 -0.4414850E-06  0.1010000E+02 -0.2310450E+00  0.5782734E+00 -0.1717560E+01  0.8456511E-01  0.5720567E+00
 -0.9899740E+00  0.1005140E+02 -0.2310450E+00  0.5817389E+00 -0.1719376E+01  0.8611707E-01  0.5753295E+00
 -0.1970410E+01  0.9905930E+01 -0.2310450E+00  0.5816662E+00 -0.1719519E+01  0.8618829E-01  0.5752453E+00
 -0.2931880E+01  0.9665100E+01 -0.2310450E+00  0.5787660E+00 -0.1717962E+01  0.8486722E-01  0.5725099E+00
 -0.3865100E+01  0.9331180E+01 -0.2310450E+00  0.5723428E+00 -0.1714822E+01  0.8214747E-01  0.5664169E+00
 -0.4761110E+01  0.8907400E+01 -0.2310450E+00  0.5610870E+00 -0.1710066E+01  0.7788983E-01  0.5556544E+00
 -0.5611260E+01  0.8397840E+01 -0.2310450E+00  0.5463068E+00 -0.1703846E+01  0.7247186E-01  0.5414785E+00
 -0.6407370E+01  0.7807410E+01 -0.2310450E+00  0.5287740E+00 -0.1696591E+01  0.6634148E-01  0.5245957E+00
 -0.7141780E+01  0.7141780E+01 -0.2310450E+00  0.5079904E+00 -0.1688966E+01  0.5988967E-01  0.5044476E+00
 -0.7807410E+01  0.6407370E+01 -0.2310450E+00  0.4828790E+00 -0.1681404E+01  0.5330143E-01  0.4799282E+00
 -0.8397840E+01  0.5611260E+01 -0.2310450E+00  0.4545775E+00 -0.1674193E+01  0.4691802E-01  0.4521497E+00
 -0.8907410E+01  0.4761110E+01 -0.2310450E+00  0.4238720E+00 -0.1668385E+01  0.4129962E-01  0.4218552E+00
 -0.9331180E+01  0.3865100E+01 -0.2310450E+00  0.3906981E+00 -0.1665706E+01  0.3702544E-01  0.3889398E+00
 -0.9665100E+01  0.2931880E+01 -0.2310450E+00  0.3544796E+00 -0.1668263E+01  0.3449544E-01  0.3527972E+00
 -0.9905930E+01  0.1970410E+01 -0.2310450E+00  0.3161001E+00 -0.1677942E+01  0.3380406E-01  0.3142873E+00
 -0.1005140E+02  0.9899730E+00 -0.2310450E+00  0.2765315E+00 -0.1698742E+01  0.3528451E-01  0.2742712E+00
 -0.1010000E+02 -0.8829700E-06 -0.2310450E+00  0.2364777E+00 -0.1737721E+01  0.3929089E-01  0.2331908E+00
 -0.1005140E+02 -0.9899740E+00 -0.2310450E+00  0.1965830E+00 -0.1807770E+01  0.4615022E-01  0.1910891E+00
 -0.9905930E+01 -0.1970410E+01 -0.2310450E+00  0.1585151E+00 -0.1929333E+01  0.5562364E-01  0.1484354E+00
 -0.9665100E+01 -0.2931880E+01 -0.2310450E+00  0.1256665E+00 -0.2138338E+01  0.6755342E-01  0.1059651E+00
 -0.9331180E+01 -0.3865100E+01 -0.2310450E+00  0.1041407E+00 -0.2473610E+01  0.8175801E-01  0.6450514E-01
 -0.8907400E+01 -0.4761110E+01 -0.2310450E+00  0.1012559E+00 -0.2895696E+01  0.9821007E-01  0.2464831E-01
 -0.8397840E+01 -0.5611260E+01 -0.2310450E+00  0.1172882E+00  0.3024204E+01  0.1164810E+00 -0.1373675E-01
 -0.7807400E+01 -0.6407370E+01 -0.2310450E+00  0.1450002E+00  0.2787138E+01  0.1359864E+00 -0.5032650E-01
 -0.7141780E+01 -0.7141780E+01 -0.2310450E+00  0.1773626E+00  0.2646397E+01  0.1560571E+00 -0.8428335E-01
 -0.6407370E+01 -0.7807410E+01 -0.2310450E+00  0.2102561E+00  0.2564888E+01  0.1762502E+00 -0.1146452E+00
 -0.5611260E+01 -0.8397850E+01 -0.2310450E+00  0.2423407E+00  0.2514629E+01  0.1962506E+00 -0.1421784E+00
 -0.4761110E+01 -0.8907410E+01 -0.2310450E+00  0.2726780E+00  0.2481780E+01  0.2154449E+00 -0.1671431E+00
 -0.3865100E+01 -0.9331190E+01 -0.2310450E+00  0.2998824E+00  0.2460647E+01  0.2330019E+00 -0.1887845E+00
 -0.2931870E+01 -0.9665100E+01 -0.2310450E+00  0.3225407E+00  0.2449044E+01  0.2482342E+00 -0.2059424E+00
 -0.1970410E+01 -0.9905930E+01 -0.2310450E+00  0.3413934E+00  0.2442012E+01  0.2612043E+00 -0.2198221E+00
 -0.9899710E+00 -0.1005140E+02 -0.2310450E+00  0.3566176E+00  0.2436751E+01  0.2716407E+00 -0.2310572E+00
  0.1204410E-06 -0.1010000E+02 -0.2310450E+00  0.3672939E+00  0.2433290E+01  0.2789477E+00 -0.2389413E+00
  0.9899760E+00 -0.1005140E+02 -0.2310450E+00  0.3720377E+00  0.2432858E+01  0.2824458E+00 -0.2421496E+00
  0.1970410E+01 -0.9905930E+01 -0.2310450E+00  0.3720973E+00  0.2433352E+01  0.2826107E+00 -0.2420487E+00
  0.2931880E+01 -0.9665100E+01 -0.2310450E+00  0.3681270E+00  0.2433706E+01  0.2796800E+00 -0.2393670E+00
  0.3865100E+01 -0.9331180E+01 -0.2310450E+00  0.3595463E+00  0.2435224E+01  0.2735154E+00 -0.2333729E+00
  0.4761110E+01 -0.8907410E+01 -0.2310450E+00  0.3451845E+00  0.2440280E+01  0.2637195E+00 -0.2227204E+00
  0.5611260E+01 -0.8397840E+01 -0.2310450E+00  0.3264202E+00  0.2447947E+01  0.2509911E+00 -0.2086950E+00
  0.6407370E+01 -0.7807410E+01 -0.2310450E+00  0.3042487E+00  0.2458604E+01  0.2360026E+00 -0.1920157E+00
  0.7141780E+01 -0.7141780E+01 -0.2310450E+00  0.2786162E+00  0.2475805E+01  0.2191123E+00 -0.1720953E+00
  0.7807410E+01 -0.6407370E+01 -0.2310450E+00  0.2489539E+00  0.2506028E+01  0.2003424E+00 -0.1477869E+00
  0.8397840E+01 -0.5611260E+01 -0.2310450E+00  0.2167585E+00  0.2553621E+01  0.1803577E+00 -0.1202304E+00
  0.8907410E+01 -0.4761110E+01 -0.2310450E+00  0.1836462E+00  0.2628298E+01  0.1599800E+00 -0.9017947E-01
  0.9331180E+01 -0.3865100E+01 -0.2310450E+00  0.1512180E+00  0.2751555E+01  0.1398607E+00 -0.5749663E-01
  0.9665100E+01 -0.2931870E+01 -0.2310450E+00  0.1222718E+00  0.2964569E+01  0.1203610E+00 -0.2153214E-01
  0.9905930E+01 -0.1970410E+01 -0.2310450E+00  0.1032245E+00 -0.2977905E+01  0.1018447E+00  0.1682127E-01
  0.1005140E+02 -0.9899690E+00 -0.2310450E+00  0.1020971E+00 -0.2552918E+01  0.8491187E-01  0.5669041E-01
  0.1010000E+02  0.0000000E+00 -0.4105000E+00  0.1191011E+00 -0.2193957E+01  0.6950791E-01  0.9671459E-01
  0.1005140E+02  0.9899730E+00 -0.4105000E+00  0.1497674E+00 -0.1963231E+01  0.5727693E-01  0.1383821E+00
  0.9905930E+01  0.1970410E+01 -0.4105000E+00  0.1868070E+00 -0.1827888E+01  0.4749931E-01  0.1806673E+00
  0.9665100E+01  0.2931880E+01 -0.4105000E+00  0.2263914E+00 -0.1749503E+01  0.4024276E-01  0.2227859E+00
  0.9331180E+01  0.3865100E+01 -0.4105000E+00  0.2662933E+00 -0.1704735E+01  0.3556051E-01  0.2639082E+00
  0.8907400E+01  0.4761110E+01 -0.4105000E+00  0.3054296E+00 -0.1680837E+01  0.3354195E-01  0.3035822E+00
  0.8397840E+01  0.5611260E+01 -0.4105000E+00  0.3435038E+00 -0.1669668E+01  0.3390750E-01  0.3418262E+00
  0.7807410E+01  0.6407370E+01 -0.4105000E+00  0.3799725E+00 -0.1666269E+01  0.3622190E-01  0.3782420E+00
  0.7141780E+01  0.7141780E+01 -0.4105000E+00  0.4139492E+00 -0.1667752E+01  0.4007188E-01  0.4120051E+00
  0.6407370E+01  0.7807410E+01 -0.4105000E+00  0.4447296E+00 -0.1672771E+01  0.4527277E-01  0.4424193E+00
  0.5611260E+01  0.8397840E+01 -0.4105000E+00  0.4728064E+00 -0.1679906E+01  0.5148543E-01  0.4699948E+00
  0.4761110E+01  0.8907410E+01 -0.4105000E+00  0.4983126E+00 -0.1687731E+01  0.5813733E-01  0.4949096E+00
  0.3865100E+01  0.9331180E+01 -0.4105000E+00  0.5204700E+00 -0.1695338E+01  0.6465253E-01  0.5164388E+00
  0.2931870E+01  0.9665100E+01 -0.4105000E+00  0.5384288E+00 -0.1702503E+01  0.7070974E-01  0.5337656E+00
  0.1970410E+01  0.9905930E+01 -0.4105000E+00  0.5530239E+00 -0.1708945E+01  0.7615691E-01  0.5477550E+00
  0.9899730E+00  0.1005140E+02 -0.4105000E+00  0.5647473E+00 -0.1714112E+01  0.8066059E-01  0.5589575E+00
 -0.4414850E-06  0.1010000E+02 -0.4105000E+00  0.5728840E+00 -0.1717663E+01  0.8383533E-01  0.5667166E+00
 -0.9899740E+00  0.1005140E+02 -0.4105000E+00  0.5764512E+00 -0.1719499E+01  0.8540455E-01  0.5700895E+00
 -0.1970410E+01  0.9905930E+01 -0.4105000E+00  0.5764366E+00 -0.1719647E+01  0.8548670E-01  0.5700625E+00
 -0.2931880E+01  0.9665100E+01 -0.4105000E+00  0.5735052E+00 -0.1718085E+01  0.8416568E-01  0.5672957E+00
 -0.3865100E+01  0.9331180E+01 -0.4105000E+00  0.5670084E+00 -0.1714927E+01  0.8144083E-01  0.5611291E+00
 -0.4761110E+01  0.8907400E+01 -0.4105000E+00  0.5559856E+00 -0.1710189E+01  0.7724939E-01  0.5505928E+00
 -0.5611260E+01  0.8397840E+01 -0.4105000E+00  0.5413892E+00 -0.1703971E+01  0.7188661E-01  0.5365954E+00
 -0.6407370E+01  0.7807410E+01 -0.4105000E+00  0.5239589E+00 -0.1696717E+01  0.6580312E-01  0.5198104E+00
 -0.7141780E+01  0.7141780E+01 -0.4105000E+00  0.5032509E+00 -0.1689102E+01  0.5939853E-01  0.4997332E+00