 VARIABLES="X" "Y" "Z" "abs(eta) (m)" "angle(phi) (rad)" "PRE1" "PRE2"
ZONE N=   3200 ,E =    3136 ,F=FEPOINT,ET=QUADRILATERAL
  0.1010000E+02  0.0000000E+00  0.0000000E+00  0.3417945E-07 -0.1800681E+01  0.7788314E-08  0.3328028E-07
  0.1005140E+02  0.9899730E+00  0.0000000E+00  0.6650543E-01 -0.1409380E+01 -0.1068853E-01  0.6564090E-01
  0.9905930E+01  0.1970410E+01  0.0000000E+00  0.1327443E+00 -0.1409600E+01 -0.2130529E-01  0.1310235E+00
  0.9665100E+01  0.2931880E+01  0.0000000E+00  0.1978938E+00 -0.1409749E+01 -0.3173264E-01  0.1953330E+00
  0.9331180E+01  0.3865100E+01  0.0000000E+00  0.2604166E+00 -0.1409612E+01 -0.4179360E-01  0.2570410E+00
  0.8907400E+01  0.4761110E+01  0.0000000E+00  0.3207810E+00 -0.1409610E+01 -0.5148197E-01  0.3166229E+00
  0.8397840E+01  0.5611260E+01  0.0000000E+00  0.3780439E+00 -0.1409605E+01 -0.6067394E-01  0.3731432E+00
  0.7807410E+01  0.6407370E+01  0.0000000E+00  0.4321625E+00 -0.1409692E+01 -0.6932233E-01  0.4265664E+00
  0.7141780E+01  0.7141780E+01  0.0000000E+00  0.4811903E+00 -0.1409611E+01 -0.7722563E-01  0.4749529E+00
  0.6407370E+01  0.7807410E+01  0.0000000E+00  0.5262218E+00 -0.1409637E+01 -0.8443878E-01  0.5194029E+00
  0.5611260E+01  0.8397840E+01  0.0000000E+00  0.5657766E+00 -0.1409604E+01 -0.9080450E-01  0.5584422E+00
  0.4761110E+01  0.8907410E+01  0.0000000E+00  0.6006455E+00 -0.1409674E+01 -0.9635916E-01  0.5928659E+00
  0.3865100E+01  0.9331180E+01  0.0000000E+00  0.6287028E+00 -0.1409611E+01 -0.1008997E+00  0.6205533E+00
  0.2931870E+01  0.9665100E+01  0.0000000E+00  0.6515481E+00 -0.1409652E+01 -0.1045398E+00  0.6431068E+00
  0.1970410E+01  0.9905930E+01  0.0000000E+00  0.6673817E+00 -0.1409605E+01 -0.1071110E+00  0.6587303E+00
  0.9899730E+00  0.1005140E+02  0.0000000E+00  0.6776769E+00 -0.1409661E+01 -0.1087256E+00  0.6688982E+00
 -0.4414850E-06  0.1010000E+02  0.0000000E+00  0.6805037E+00 -0.1409611E+01 -0.1092132E+00  0.6716828E+00
 -0.9899740E+00  0.1005140E+02  0.0000000E+00  0.6776766E+00 -0.1409662E+01 -0.1087252E+00  0.6688979E+00
 -0.1970410E+01  0.9905930E+01  0.0000000E+00  0.6673823E+00 -0.1409604E+01 -0.1071114E+00  0.6587308E+00
 -0.2931880E+01  0.9665100E+01  0.0000000E+00  0.6515475E+00 -0.1409651E+01 -0.1045399E+00  0.6431062E+00
 -0.3865100E+01  0.9331180E+01  0.0000000E+00  0.6287031E+00 -0.1409611E+01 -0.1008997E+00  0.6205537E+00
 -0.4761110E+01  0.8907400E+01  0.0000000E+00  0.6006463E+00 -0.1409674E+01 -0.9635929E-01  0.5928667E+00
 -0.5611260E+01  0.8397840E+01  0.0000000E+00  0.5657772E+00 -0.1409605E+01 -0.9080385E-01  0.5584429E+00
 -0.6407370E+01  0.7807410E+01  0.0000000E+00  0.5262212E+00 -0.1409638E+01 -0.8443847E-01  0.5194024E+00
 -0.7141780E+01  0.7141780E+01  0.0000000E+00  0.4811902E+00 -0.1409611E+01 -0.7722522E-01  0.4749530E+00
 -0.7807410E+01  0.6407370E+01  0.0000000E+00  0.4321626E+00 -0.1409691E+01 -0.6932271E-01  0.4265664E+00
 -0.8397840E+01  0.5611260E+01  0.0000000E+00  0.3780441E+00 -0.1409605E+01 -0.6067381E-01  0.3731434E+00
 -0.8907410E+01  0.4761110E+01  0.0000000E+00  0.3207806E+00 -0.1409608E+01 -0.5148239E-01  0.3166224E+00
 -0.9331180E+01  0.3865100E+01  0.0000000E+00  0.2604169E+00 -0.1409609E+01 -0.4179444E-01  0.2570412E+00
 -0.9665100E+01  0.2931880E+01  0.0000000E+00  0.1978932E+00 -0.1409747E+01 -0.3173302E-01  0.1953323E+00
 -0.9905930E+01  0.1970410E+01  0.0000000E+00  0.1327448E+00 -0.1409602E+01 -0.2130521E-01  0.1310239E+00
 -0.1005140E+02  0.9899730E+00  0.0000000E+00  0.6650589E-01 -0.1409382E+01 -0.1068843E-01  0.6564137E-01
 -0.1010000E+02 -0.8829700E-06  0.0000000E+00  0.2986345E-06 -0.1710287E-01 -0.2985908E-06  0.5107258E-08
 -0.1005140E+02 -0.9899740E+00  0.0000000E+00  0.6650564E-01  0.1732210E+01  0.1068838E-01 -0.6564113E-01
 -0.9905930E+01 -0.1970410E+01  0.0000000E+00  0.1327447E+00  0.1731989E+01  0.2130497E-01 -0.1310239E+00
 -0.9665100E+01 -0.2931880E+01  0.0000000E+00  0.1978931E+00  0.1731844E+01  0.3173265E-01 -0.1953323E+00
 -0.9331180E+01 -0.3865100E+01  0.0000000E+00  0.2604169E+00  0.1731983E+01  0.4179409E-01 -0.2570413E+00
 -0.8907400E+01 -0.4761110E+01  0.0000000E+00  0.3207813E+00  0.1731984E+01  0.5148226E-01 -0.3166232E+00
 -0.8397840E+01 -0.5611260E+01  0.0000000E+00  0.3780439E+00  0.1731987E+01  0.6067356E-01 -0.3731433E+00
 -0.7807400E+01 -0.6407370E+01  0.0000000E+00  0.4321631E+00  0.1731901E+01  0.6932260E-01 -0.4265669E+00
 -0.7141780E+01 -0.7141780E+01  0.0000000E+00  0.4811900E+00  0.1731981E+01  0.7722486E-01 -0.4749528E+00
 -0.6407370E+01 -0.7807410E+01  0.0000000E+00  0.5262215E+00  0.1731954E+01  0.8443810E-01 -0.5194028E+00
 -0.5611260E+01 -0.8397850E+01  0.0000000E+00  0.5657768E+00  0.1731988E+01  0.9080395E-01 -0.5584425E+00
 -0.4761110E+01 -0.8907410E+01  0.0000000E+00  0.6006449E+00  0.1731919E+01  0.9635925E-01 -0.5928653E+00
 -0.3865100E+01 -0.9331190E+01  0.0000000E+00  0.6287025E+00  0.1731982E+01  0.1008996E+00 -0.6205531E+00
 -0.2931870E+01 -0.9665100E+01  0.0000000E+00  0.6515476E+00  0.1731941E+01  0.1045396E+00 -0.6431063E+00
 -0.1970410E+01 -0.9905930E+01  0.0000000E+00  0.6673824E+00  0.1731988E+01  0.1071110E+00 -0.6587310E+00
 -0.9899710E+00 -0.1005140E+02  0.0000000E+00  0.6776778E+00  0.1731930E+01  0.1087251E+00 -0.6688991E+00
  0.1204410E-06 -0.1010000E+02  0.0000000E+00  0.6805041E+00  0.1731981E+01  0.1092127E+00 -0.6716833E+00
  0.9899760E+00 -0.1005140E+02  0.0000000E+00  0.6776778E+00  0.1731931E+01  0.1087254E+00 -0.6688990E+00
  0.1970410E+01 -0.9905930E+01  0.0000000E+00  0.6673824E+00  0.1731987E+01  0.1071109E+00 -0.6587310E+00
  0.2931880E+01 -0.9665100E+01  0.0000000E+00  0.6515470E+00  0.1731941E+01  0.1045395E+00 -0.6431057E+00
  0.3865100E+01 -0.9331180E+01  0.0000000E+00  0.6287028E+00  0.1731982E+01  0.1008993E+00 -0.6205534E+00
  0.4761110E+01 -0.8907410E+01  0.0000000E+00  0.6006453E+00  0.1731919E+01  0.9635919E-01 -0.5928656E+00
  0.5611260E+01 -0.8397840E+01  0.0000000E+00  0.5657766E+00  0.1731988E+01  0.9080399E-01 -0.5584424E+00
  0.6407370E+01 -0.7807410E+01  0.0000000E+00  0.5262213E+00  0.1731955E+01  0.8443845E-01 -0.5194025E+00
  0.7141780E+01 -0.7141780E+01  0.0000000E+00  0.4811902E+00  0.1731981E+01  0.7722505E-01 -0.4749529E+00
  0.7807410E+01 -0.6407370E+01  0.0000000E+00  0.4321625E+00  0.1731900E+01  0.6932224E-01 -0.4265663E+00
  0.8397840E+01 -0.5611260E+01  0.0000000E+00  0.3780441E+00  0.1731986E+01  0.6067326E-01 -0.3731435E+00
  0.8907410E+01 -0.4761110E+01  0.0000000E+00  0.3207808E+00  0.1731983E+01  0.5148204E-01 -0.3166227E+00
  0.9331180E+01 -0.3865100E+01  0.0000000E+00  0.2604167E+00  0.1731980E+01  0.4179346E-01 -0.2570412E+00
  0.9665100E+01 -0.2931870E+01  0.0000000E+00  0.1978925E+00  0.1731844E+01  0.3173257E-01 -0.1953317E+00
  0.9905930E+01 -0.1970410E+01  0.0000000E+00  0.1327448E+00  0.1731989E+01  0.2130497E-01 -0.1310240E+00
  0.1005140E+02 -0.9899690E+00  0.0000000E+00  0.6650538E-01  0.1732210E+01  0.1068832E-01 -0.6564088E-01
  0.1010000E+02  0.0000000E+00 -0.2568960E-01  0.4287901E-06  0.2724255E-01 -0.4286310E-06 -0.1167989E-07
  0.1005140E+02  0.9899730E+00 -0.2568960E-01  0.6642004E-01 -0.1409370E+01 -0.1067544E-01  0.6555652E-01
  0.9905930E+01  0.1970410E+01 -0.2568960E-01  0.1325673E+00 -0.1409584E+01 -0.2127902E-01  0.1308484E+00
  0.9665100E+01  0.2931880E+01 -0.2568960E-01  0.1976490E+00 -0.1409738E+01 -0.3169559E-01  0.1950911E+00
  0.9331180E+01  0.3865100E+01 -0.2568960E-01  0.2601456E+00 -0.1409617E+01 -0.4174889E-01  0.2567737E+00
  0.8907400E+01  0.4761110E+01 -0.2568960E-01  0.3203786E+00 -0.1409597E+01 -0.5142151E-01  0.3162251E+00
  0.8397840E+01  0.5611260E+01 -0.2568960E-01  0.3775381E+00 -0.1409588E+01 -0.6059897E-01  0.3726430E+00
  0.7807410E+01  0.6407370E+01 -0.2568960E-01  0.4316264E+00 -0.1409683E+01 -0.6924037E-01  0.4260365E+00
  0.7141780E+01  0.7141780E+01 -0.2568960E-01  0.4806892E+00 -0.1409617E+01 -0.7714225E-01  0.4744588E+00
  0.6407370E+01  0.7807410E+01 -0.2568960E-01  0.5255634E+00 -0.1409627E+01 -0.8433869E-01  0.5187522E+00
  0.5611260E+01  0.8397840E+01 -0.2568960E-01  0.5650210E+00 -0.1409588E+01 -0.9069220E-01  0.5576949E+00
  0.4761110E+01  0.8907410E+01 -0.2568960E-01  0.5998984E+00 -0.1409664E+01 -0.9624506E-01  0.5921275E+00
  0.3865100E+01  0.9331180E+01 -0.2568960E-01  0.6280484E+00 -0.1409617E+01 -0.1007907E+00  0.6199081E+00
  0.2931870E+01  0.9665100E+01 -0.2568960E-01  0.6507351E+00 -0.1409641E+01 -0.1044161E+00  0.6423033E+00
  0.1970410E+01  0.9905930E+01 -0.2568960E-01  0.6664906E+00 -0.1409587E+01 -0.1069795E+00  0.6578488E+00
  0.9899730E+00  0.1005140E+02 -0.2568960E-01  0.6768339E+00 -0.1409651E+01 -0.1085971E+00  0.6680650E+00
 -0.4414850E-06  0.1010000E+02 -0.2568960E-01  0.6797966E+00 -0.1409617E+01 -0.1090956E+00  0.6709856E+00
 -0.9899740E+00  0.1005140E+02 -0.2568960E-01  0.6768346E+00 -0.1409652E+01 -0.1085968E+00  0.6680657E+00
 -0.1970410E+01  0.9905930E+01 -0.2568960E-01  0.6664906E+00 -0.1409588E+01 -0.1069791E+00  0.6578489E+00
 -0.2931880E+01  0.9665100E+01 -0.2568960E-01  0.6507353E+00 -0.1409642E+01 -0.1044157E+00  0.6423035E+00
 -0.3865100E+01  0.9331180E+01 -0.2568960E-01  0.6280490E+00 -0.1409617E+01 -0.1007909E+00  0.6199087E+00
 -0.4761110E+01  0.8907400E+01 -0.2568960E-01  0.5998991E+00 -0.1409665E+01 -0.9624469E-01  0.5921283E+00
 -0.5611260E+01  0.8397840E+01 -0.2568960E-01  0.5650209E+00 -0.1409587E+01 -0.9069242E-01  0.5576948E+00
 -0.6407370E+01  0.7807410E+01 -0.2568960E-01  0.5255639E+00 -0.1409627E+01 -0.8433856E-01  0.5187528E+00
 -0.7141780E+01  0.7141780E+01 -0.2568960E-01  0.4806888E+00 -0.1409616E+01 -0.7714256E-01  0.4744583E+00
 -0.7807410E+01  0.6407370E+01 -0.2568960E-01  0.4316265E+00 -0.1409682E+01 -0.6924057E-01  0.4260366E+00
 -0.8397840E+01  0.5611260E+01 -0.2568960E-01  0.3775386E+00 -0.1409588E+01 -0.6059906E-01  0.3726434E+00
 -0.8907410E+01  0.4761110E+01 -0.2568960E-01  0.3203785E+00 -0.1409598E+01 -0.5142119E-01  0.3162250E+00
 -0.9331180E+01  0.3865100E+01 -0.2568960E-01  0.2601459E+00 -0.1409616E+01 -0.4174908E-01  0.2567741E+00
 -0.9665100E+01  0.2931880E+01 -0.2568960E-01  0.1976494E+00 -0.1409739E+01 -0.3169542E-01  0.1950915E+00
 -0.9905930E+01  0.1970410E+01 -0.2568960E-01  0.1325678E+00 -0.1409583E+01 -0.2127925E-01  0.1308488E+00
 -0.1005140E+02  0.9899730E+00 -0.2568960E-01  0.6642022E-01 -0.1409373E+01 -0.1067528E-01  0.6555673E-01
 -0.1010000E+02 -0.8829700E-06 -0.2568960E-01  0.1264362E-06 -0.8480780E+00 -0.8362819E-07  0.9482851E-07
 -0.1005140E+02 -0.9899740E+00 -0.2568960E-01  0.6642006E-01  0.1732220E+01  0.1067525E-01 -0.6555657E-01
 -0.9905930E+01 -0.1970410E+01 -0.2568960E-01  0.1325672E+00  0.1732006E+01  0.2127867E-01 -0.1308483E+00
 -0.9665100E+01 -0.2931880E+01 -0.2568960E-01  0.1976492E+00  0.1731853E+01  0.3169526E-01 -0.1950914E+00
 -0.9331180E+01 -0.3865100E+01 -0.2568960E-01  0.2601459E+00  0.1731974E+01  0.4174849E-01 -0.2567741E+00
 -0.8907400E+01 -0.4761110E+01 -0.2568960E-01  0.3203791E+00  0.1731993E+01  0.5142068E-01 -0.3162257E+00
 -0.8397840E+01 -0.5611260E+01 -0.2568960E-01  0.3775388E+00  0.1732004E+01  0.6059896E-01 -0.3726437E+00
 -0.7807400E+01 -0.6407370E+01 -0.2568960E-01  0.4316275E+00  0.1731909E+01  0.6924019E-01 -0.4260377E+00
 -0.7141780E+01 -0.7141780E+01 -0.2568960E-01  0.4806896E+00  0.1731975E+01  0.7714203E-01 -0.4744592E+00
 -0.6407370E+01 -0.7807410E+01 -0.2568960E-01  0.5255641E+00  0.1731965E+01  0.8433811E-01 -0.5187531E+00
 -0.5611260E+01 -0.8397850E+01 -0.2568960E-01  0.5650204E+00  0.1732005E+01  0.9069205E-01 -0.5576944E+00
 -0.4761110E+01 -0.8907410E+01 -0.2568960E-01  0.5998984E+00  0.1731928E+01  0.9624484E-01 -0.5921276E+00
 -0.3865100E+01 -0.9331190E+01 -0.2568960E-01  0.6280485E+00  0.1731976E+01  0.1007908E+00 -0.6199082E+00
 -0.2931870E+01 -0.9665100E+01 -0.2568960E-01  0.6507353E+00  0.1731951E+01  0.1044155E+00 -0.6423035E+00
 -0.1970410E+01 -0.9905930E+01 -0.2568960E-01  0.6664905E+00  0.1732005E+01  0.1069791E+00 -0.6578488E+00
 -0.9899710E+00 -0.1005140E+02 -0.2568960E-01  0.6768339E+00  0.1731941E+01  0.1085965E+00 -0.6680651E+00
  0.1204410E-06 -0.1010000E+02 -0.2568960E-01  0.6797971E+00  0.1731975E+01  0.1090950E+00 -0.6709861E+00
  0.9899760E+00 -0.1005140E+02 -0.2568960E-01  0.6768337E+00  0.1731941E+01  0.1085967E+00 -0.6680649E+00
  0.1970410E+01 -0.9905930E+01 -0.2568960E-01  0.6664906E+00  0.1732005E+01  0.1069790E+00 -0.6578490E+00
  0.2931880E+01 -0.9665100E+01 -0.2568960E-01  0.6507356E+00  0.1731951E+01  0.1044158E+00 -0.6423038E+00
  0.3865100E+01 -0.9331180E+01 -0.2568960E-01  0.6280494E+00  0.1731976E+01  0.1007909E+00 -0.6199090E+00
  0.4761110E+01 -0.8907410E+01 -0.2568960E-01  0.5998982E+00  0.1731928E+01  0.9624495E-01 -0.5921273E+00
  0.5611260E+01 -0.8397840E+01 -0.2568960E-01  0.5650206E+00  0.1732004E+01  0.9069186E-01 -0.5576946E+00
  0.6407370E+01 -0.7807410E+01 -0.2568960E-01  0.5255640E+00  0.1731966E+01  0.8433856E-01 -0.5187529E+00
  0.7141780E+01 -0.7141780E+01 -0.2568960E-01  0.4806892E+00  0.1731975E+01  0.7714175E-01 -0.4744589E+00
  0.7807410E+01 -0.6407370E+01 -0.2568960E-01  0.4316267E+00  0.1731910E+01  0.6924056E-01 -0.4260368E+00
  0.8397840E+01 -0.5611260E+01 -0.2568960E-01  0.3775387E+00  0.1732005E+01  0.6059914E-01 -0.3726435E+00
  0.8907410E+01 -0.4761110E+01 -0.2568960E-01  0.3203788E+00  0.1731994E+01  0.5142092E-01 -0.3162253E+00
  0.9331180E+01 -0.3865100E+01 -0.2568960E-01  0.2601459E+00  0.1731975E+01  0.4174871E-01 -0.2567741E+00
  0.9665100E+01 -0.2931870E+01 -0.2568960E-01  0.1976488E+00  0.1731851E+01  0.3169491E-01 -0.1950910E+00
  0.9905930E+01 -0.1970410E+01 -0.2568960E-01  0.1325676E+00  0.1732005E+01  0.2127866E-01 -0.1308487E+00
  0.1005140E+02 -0.9899690E+00 -0.2568960E-01  0.6641989E-01  0.1732224E+01  0.1067550E-01 -0.6555635E-01
  0.1010000E+02  0.0000000E+00 -0.1027320E+00  0.1794312E-06  0.1820297E+01  0.4430520E-07 -0.1738752E-06
  0.1005140E+02  0.9899730E+00 -0.1027320E+00  0.6619332E-01 -0.1409371E+01 -0.1063896E-01  0.6533275E-01
  0.9905930E+01  0.1970410E+01 -0.1027320E+00  0.1321596E+00 -0.1409610E+01 -0.2121022E-01  0.1304465E+00
  0.9665100E+01  0.2931880E+01 -0.1027320E+00  0.1970303E+00 -0.1409757E+01 -0.3159264E-01  0.1944809E+00
  0.9331180E+01  0.3865100E+01 -0.1027320E+00  0.2594117E+00 -0.1409658E+01 -0.4162044E-01  0.2560511E+00
  0.8907400E+01  0.4761110E+01 -0.1027320E+00  0.3193417E+00 -0.1409610E+01 -0.5125102E-01  0.3152022E+00
  0.8397840E+01  0.5611260E+01 -0.1027320E+00  0.3763778E+00 -0.1409612E+01 -0.6040398E-01  0.3714991E+00
  0.7807410E+01  0.6407370E+01 -0.1027320E+00  0.4302571E+00 -0.1409698E+01 -0.6901436E-01  0.4246860E+00
  0.7141780E+01  0.7141780E+01 -0.1027320E+00  0.4793333E+00 -0.1409661E+01 -0.7690383E-01  0.4731239E+00
  0.6407370E+01  0.7807410E+01 -0.1027320E+00  0.5238743E+00 -0.1409639E+01 -0.8406137E-01  0.5170860E+00
  0.5611260E+01  0.8397840E+01 -0.1027320E+00  0.5632834E+00 -0.1409611E+01 -0.9040026E-01  0.5559821E+00
  0.4761110E+01  0.8907410E+01 -0.1027320E+00  0.5979866E+00 -0.1409678E+01 -0.9593032E-01  0.5902417E+00
  0.3865100E+01  0.9331180E+01 -0.1027320E+00  0.6262761E+00 -0.1409660E+01 -0.1004796E+00  0.6181630E+00
  0.2931870E+01  0.9665100E+01 -0.1027320E+00  0.6486495E+00 -0.1409654E+01 -0.1040729E+00  0.6402461E+00
  0.1970410E+01  0.9905930E+01 -0.1027320E+00  0.6644406E+00 -0.1409612E+01 -0.1066346E+00  0.6558281E+00
  0.9899730E+00  0.1005140E+02 -0.1027320E+00  0.6746714E+00 -0.1409665E+01 -0.1082407E+00  0.6659320E+00
 -0.4414850E-06  0.1010000E+02 -0.1027320E+00  0.6778804E+00 -0.1409660E+01 -0.1087591E+00  0.6690989E+00
 -0.9899740E+00  0.1005140E+02 -0.1027320E+00  0.6746711E+00 -0.1409666E+01 -0.1082402E+00  0.6659318E+00
 -0.1970410E+01  0.9905930E+01 -0.1027320E+00  0.6644409E+00 -0.1409612E+01 -0.1066343E+00  0.6558283E+00
 -0.2931880E+01  0.9665100E+01 -0.1027320E+00  0.6486492E+00 -0.1409654E+01 -0.1040730E+00  0.6402457E+00
 -0.3865100E+01  0.9331180E+01 -0.1027320E+00  0.6262765E+00 -0.1409660E+01 -0.1004800E+00  0.6181634E+00
 -0.4761110E+01  0.8907400E+01 -0.1027320E+00  0.5979876E+00 -0.1409679E+01 -0.9592985E-01  0.5902429E+00
 -0.5611260E+01  0.8397840E+01 -0.1027320E+00  0.5632834E+00 -0.1409610E+01 -0.9040074E-01  0.5559820E+00
 -0.6407370E+01  0.7807410E+01 -0.1027320E+00  0.5238746E+00 -0.1409640E+01 -0.8406097E-01  0.5170864E+00
 -0.7141780E+01  0.7141780E+01 -0.1027320E+00  0.4793335E+00 -0.1409660E+01 -0.7690400E-01  0.4731241E+00
 -0.7807410E+01  0.6407370E+01 -0.1027320E+00  0.4302575E+00 -0.1409698E+01 -0.6901420E-01  0.4246865E+00
 -0.8397840E+01  0.5611260E+01 -0.1027320E+00  0.3763776E+00 -0.1409611E+01 -0.6040404E-01  0.3714990E+00
 -0.8907410E+01  0.4761110E+01 -0.1027320E+00  0.3193417E+00 -0.1409609E+01 -0.5125131E-01  0.3152021E+00
 -0.9331180E+01  0.3865100E+01 -0.1027320E+00  0.2594123E+00 -0.1409660E+01 -0.4162002E-01  0.2560517E+00
 -0.9665100E+01  0.2931880E+01 -0.1027320E+00  0.1970308E+00 -0.1409759E+01 -0.3159239E-01  0.1944815E+00
 -0.9905930E+01  0.1970410E+01 -0.1027320E+00  0.1321600E+00 -0.1409605E+01 -0.2121092E-01  0.1304468E+00
 -0.1005140E+02  0.9899730E+00 -0.1027320E+00  0.6619360E-01 -0.1409367E+01 -0.1063923E-01  0.6533299E-01
 -0.1010000E+02 -0.8829700E-06 -0.1027320E+00  0.2981520E-06  0.3884049E+00 -0.2759439E-06 -0.1129139E-06
 -0.1005140E+02 -0.9899740E+00 -0.1027320E+00  0.6619360E-01  0.1732221E+01  0.1063896E-01 -0.6533303E-01
 -0.9905930E+01 -0.1970410E+01 -0.1027320E+00  0.1321598E+00  0.1731986E+01  0.2121064E-01 -0.1304466E+00
 -0.9665100E+01 -0.2931880E+01 -0.1027320E+00  0.1970306E+00  0.1731834E+01  0.3159234E-01 -0.1944813E+00
 -0.9331180E+01 -0.3865100E+01 -0.1027320E+00  0.2594122E+00  0.1731931E+01  0.4161967E-01 -0.2560517E+00
 -0.8907400E+01 -0.4761110E+01 -0.1027320E+00  0.3193420E+00  0.1731982E+01  0.5125083E-01 -0.3152026E+00
 -0.8397840E+01 -0.5611260E+01 -0.1027320E+00  0.3763779E+00  0.1731980E+01  0.6040377E-01 -0.3714993E+00
 -0.7807400E+01 -0.6407370E+01 -0.1027320E+00  0.4302579E+00  0.1731894E+01  0.6901409E-01 -0.4246868E+00
 -0.7141780E+01 -0.7141780E+01 -0.1027320E+00  0.4793337E+00  0.1731932E+01  0.7690374E-01 -0.4731243E+00
 -0.6407370E+01 -0.7807410E+01 -0.1027320E+00  0.5238746E+00  0.1731953E+01  0.8406071E-01 -0.5170865E+00
 -0.5611260E+01 -0.8397850E+01 -0.1027320E+00  0.5632828E+00  0.1731982E+01  0.9040029E-01 -0.5559814E+00
 -0.4761110E+01 -0.8907410E+01 -0.1027320E+00  0.5979868E+00  0.1731913E+01  0.9592959E-01 -0.5902420E+00
 -0.3865100E+01 -0.9331190E+01 -0.1027320E+00  0.6262774E+00  0.1731933E+01  0.1004800E+00 -0.6181644E+00
 -0.2931870E+01 -0.9665100E+01 -0.1027320E+00  0.6486501E+00  0.1731938E+01  0.1040725E+00 -0.6402467E+00
 -0.1970410E+01 -0.9905930E+01 -0.1027320E+00  0.6644407E+00  0.1731981E+01  0.1066346E+00 -0.6558281E+00
 -0.9899710E+00 -0.1005140E+02 -0.1027320E+00  0.6746715E+00  0.1731926E+01  0.1082401E+00 -0.6659322E+00
  0.1204410E-06 -0.1010000E+02 -0.1027320E+00  0.6778800E+00  0.1731932E+01  0.1087588E+00 -0.6690985E+00
  0.9899760E+00 -0.1005140E+02 -0.1027320E+00  0.6746716E+00  0.1731926E+01  0.1082401E+00 -0.6659323E+00
  0.1970410E+01 -0.9905930E+01 -0.1027320E+00  0.6644410E+00  0.1731981E+01  0.1066344E+00 -0.6558285E+00
  0.2931880E+01 -0.9665100E+01 -0.1027320E+00  0.6486499E+00  0.1731938E+01  0.1040726E+00 -0.6402465E+00
  0.3865100E+01 -0.9331180E+01 -0.1027320E+00  0.6262774E+00  0.1731932E+01  0.1004795E+00 -0.6181644E+00
  0.4761110E+01 -0.8907410E+01 -0.1027320E+00  0.5979869E+00  0.1731914E+01  0.9592987E-01 -0.5902422E+00
  0.5611260E+01 -0.8397840E+01 -0.1027320E+00  0.5632835E+00  0.1731981E+01  0.9040008E-01 -0.5559821E+00
  0.6407370E+01 -0.7807410E+01 -0.1027320E+00  0.5238746E+00  0.1731953E+01  0.8406086E-01 -0.5170864E+00
  0.7141780E+01 -0.7141780E+01 -0.1027320E+00  0.4793337E+00  0.1731931E+01  0.7690369E-01 -0.4731243E+00
  0.7807410E+01 -0.6407370E+01 -0.1027320E+00  0.4302571E+00  0.1731894E+01  0.6901395E-01 -0.4246860E+00
  0.8397840E+01 -0.5611260E+01 -0.1027320E+00  0.3763775E+00  0.1731980E+01  0.6040354E-01 -0.3714989E+00
  0.8907410E+01 -0.4761110E+01 -0.1027320E+00  0.3193416E+00  0.1731983E+01  0.5125094E-01 -0.3152021E+00
  0.9331180E+01 -0.3865100E+01 -0.1027320E+00  0.2594123E+00  0.1731933E+01  0.4162026E-01 -0.2560517E+00
  0.9665100E+01 -0.2931870E+01 -0.1027320E+00  0.1970302E+00  0.1731834E+01  0.3159237E-01 -0.1944809E+00
  0.9905930E+01 -0.1970410E+01 -0.1027320E+00  0.1321598E+00  0.1731981E+01  0.2120997E-01 -0.1304467E+00
  0.1005140E+02 -0.9899690E+00 -0.1027320E+00  0.6619313E-01  0.1732219E+01  0.1063871E-01 -0.6533260E-01
  0.1010000E+02  0.0000000E+00 -0.2310450E+00  0.1571253E-06  0.9178773E+00 -0.9545484E-07 -0.1248068E-06
  0.1005140E+02  0.9899730E+00 -0.2310450E+00  0.6584089E-01 -0.1409399E+01 -0.1058049E-01  0.6498519E-01
  0.9905930E+01  0.1970410E+01 -0.2310450E+00  0.1314849E+00 -0.1409653E+01 -0.2109633E-01  0.1297814E+00
  0.9665100E+01  0.2931880E+01 -0.2310450E+00  0.1960577E+00 -0.1409819E+01 -0.3142475E-01  0.1935228E+00
  0.9331180E+01  0.3865100E+01 -0.2310450E+00  0.2582249E+00 -0.1409750E+01 -0.4140665E-01  0.2548835E+00
  0.8907400E+01  0.4761110E+01 -0.2310450E+00  0.3177173E+00 -0.1409658E+01 -0.5097517E-01  0.3136013E+00
  0.8397840E+01  0.5611260E+01 -0.2310450E+00  0.3744533E+00 -0.1409660E+01 -0.6007746E-01  0.3696025E+00
  0.7807410E+01  0.6407370E+01 -0.2310450E+00  0.4281067E+00 -0.1409755E+01 -0.6864514E-01  0.4225673E+00
  0.7141780E+01  0.7141780E+01 -0.2310450E+00  0.4771409E+00 -0.1409750E+01 -0.7650998E-01  0.4709667E+00
  0.6407370E+01  0.7807410E+01 -0.2310450E+00  0.5212255E+00 -0.1409692E+01 -0.8360891E-01  0.5144760E+00
  0.5611260E+01  0.8397840E+01 -0.2310450E+00  0.5604038E+00 -0.1409659E+01 -0.8991169E-01  0.5531440E+00
  0.4761110E+01  0.8907410E+01 -0.2310450E+00  0.5949858E+00 -0.1409735E+01 -0.9541547E-01  0.5872853E+00
  0.3865100E+01  0.9331180E+01 -0.2310450E+00  0.6234117E+00 -0.1409750E+01 -0.9996491E-01  0.6153447E+00
  0.2931870E+01  0.9665100E+01 -0.2310450E+00  0.6453792E+00 -0.1409708E+01 -0.1035137E+00  0.6370237E+00
  0.1970410E+01  0.9905930E+01 -0.2310450E+00  0.6610450E+00 -0.1409660E+01 -0.1060582E+00  0.6524816E+00
  0.9899730E+00  0.1005140E+02 -0.2310450E+00  0.6712778E+00 -0.1409720E+01 -0.1076600E+00  0.6625882E+00
 -0.4414850E-06  0.1010000E+02 -0.2310450E+00  0.6747761E+00 -0.1409750E+01 -0.1082012E+00  0.6660445E+00
 -0.9899740E+00  0.1005140E+02 -0.2310450E+00  0.6712775E+00 -0.1409720E+01 -0.1076596E+00  0.6625880E+00
 -0.1970410E+01  0.9905930E+01 -0.2310450E+00  0.6610446E+00 -0.1409660E+01 -0.1060580E+00  0.6524811E+00
 -0.2931880E+01  0.9665100E+01 -0.2310450E+00  0.6453788E+00 -0.1409708E+01 -0.1035141E+00  0.6370232E+00
 -0.3865100E+01  0.9331180E+01 -0.2310450E+00  0.6234112E+00 -0.1409750E+01 -0.9996465E-01  0.6153443E+00
 -0.4761110E+01  0.8907400E+01 -0.2310450E+00  0.5949872E+00 -0.1409734E+01 -0.9541598E-01  0.5872865E+00
 -0.5611260E+01  0.8397840E+01 -0.2310450E+00  0.5604038E+00 -0.1409659E+01 -0.8991162E-01  0.5531440E+00
 -0.6407370E+01  0.7807410E+01 -0.2310450E+00  0.5212255E+00 -0.1409691E+01 -0.8360922E-01  0.5144759E+00
 -0.7141780E+01  0.7141780E+01 -0.2310450E+00  0.4771413E+00 -0.1409751E+01 -0.7650977E-01  0.4709672E+00
 -0.7807410E+01  0.6407370E+01 -0.2310450E+00  0.4281070E+00 -0.1409756E+01 -0.6864506E-01  0.4225677E+00
 -0.8397840E+01  0.5611260E+01 -0.2310450E+00  0.3744534E+00 -0.1409660E+01 -0.6007716E-01  0.3696026E+00
 -0.8907410E+01  0.4761110E+01 -0.2310450E+00  0.3177173E+00 -0.1409659E+01 -0.5097486E-01  0.3136014E+00
 -0.9331180E+01  0.3865100E+01 -0.2310450E+00  0.2582257E+00 -0.1409750E+01 -0.4140671E-01  0.2548843E+00
 -0.9665100E+01  0.2931880E+01 -0.2310450E+00  0.1960580E+00 -0.1409819E+01 -0.3142467E-01  0.1935232E+00
 -0.9905930E+01  0.1970410E+01 -0.2310450E+00  0.1314846E+00 -0.1409654E+01 -0.2109619E-01  0.1297811E+00
 -0.1005140E+02  0.9899730E+00 -0.2310450E+00  0.6584140E-01 -0.1409389E+01 -0.1058118E-01  0.6498560E-01
 -0.1010000E+02 -0.8829700E-06 -0.2310450E+00  0.2357339E-06 -0.1350204E+00 -0.2335884E-06  0.3173227E-07
 -0.1005140E+02 -0.9899740E+00 -0.2310450E+00  0.6584115E-01  0.1732197E+01  0.1058075E-01 -0.6498542E-01
 -0.9905930E+01 -0.1970410E+01 -0.2310450E+00  0.1314844E+00  0.1731936E+01  0.2109583E-01 -0.1297810E+00
 -0.9665100E+01 -0.2931880E+01 -0.2310450E+00  0.1960577E+00  0.1731771E+01  0.3142417E-01 -0.1935230E+00
 -0.9331180E+01 -0.3865100E+01 -0.2310450E+00  0.2582255E+00  0.1731842E+01  0.4140646E-01 -0.2548841E+00
 -0.8907400E+01 -0.4761110E+01 -0.2310450E+00  0.3177180E+00  0.1731933E+01  0.5097471E-01 -0.3136021E+00
 -0.8397840E+01 -0.5611260E+01 -0.2310450E+00  0.3744540E+00  0.1731932E+01  0.6007726E-01 -0.3696032E+00
 -0.7807400E+01 -0.6407370E+01 -0.2310450E+00  0.4281075E+00  0.1731836E+01  0.6864488E-01 -0.4225682E+00
 -0.7141780E+01 -0.7141780E+01 -0.2310450E+00  0.4771408E+00  0.1731842E+01  0.7650980E-01 -0.4709667E+00
 -0.6407370E+01 -0.7807410E+01 -0.2310450E+00  0.5212252E+00  0.1731900E+01  0.8360872E-01 -0.5144758E+00
 -0.5611260E+01 -0.8397850E+01 -0.2310450E+00  0.5604041E+00  0.1731933E+01  0.8991122E-01 -0.5531443E+00
 -0.4761110E+01 -0.8907410E+01 -0.2310450E+00  0.5949862E+00  0.1731858E+01  0.9541550E-01 -0.5872857E+00
 -0.3865100E+01 -0.9331190E+01 -0.2310450E+00  0.6234121E+00  0.1731842E+01  0.9996459E-01 -0.6153452E+00
 -0.2931870E+01 -0.9665100E+01 -0.2310450E+00  0.6453794E+00  0.1731884E+01  0.1035137E+00 -0.6370239E+00
 -0.1970410E+01 -0.9905930E+01 -0.2310450E+00  0.6610450E+00  0.1731932E+01  0.1060576E+00 -0.6524816E+00
 -0.9899710E+00 -0.1005140E+02 -0.2310450E+00  0.6712776E+00  0.1731872E+01  0.1076595E+00 -0.6625882E+00
  0.1204410E-06 -0.1010000E+02 -0.2310450E+00  0.6747786E+00  0.1731842E+01  0.1082010E+00 -0.6660471E+00
  0.9899760E+00 -0.1005140E+02 -0.2310450E+00  0.6712773E+00  0.1731872E+01  0.1076597E+00 -0.6625879E+00
  0.1970410E+01 -0.9905930E+01 -0.2310450E+00  0.6610445E+00  0.1731933E+01  0.1060581E+00 -0.6524811E+00
  0.2931880E+01 -0.9665100E+01 -0.2310450E+00  0.6453792E+00  0.1731884E+01  0.1035137E+00 -0.6370237E+00
  0.3865100E+01 -0.9331180E+01 -0.2310450E+00  0.6234128E+00  0.1731842E+01  0.9996469E-01 -0.6153459E+00
  0.4761110E+01 -0.8907410E+01 -0.2310450E+00  0.5949864E+00  0.1731858E+01  0.9541587E-01 -0.5872858E+00
  0.5611260E+01 -0.8397840E+01 -0.2310450E+00  0.5604042E+00  0.1731933E+01  0.8991133E-01 -0.5531445E+00
  0.6407370E+01 -0.7807410E+01 -0.2310450E+00  0.5212255E+00  0.1731901E+01  0.8360902E-01 -0.5144760E+00
  0.7141780E+01 -0.7141780E+01 -0.2310450E+00  0.4771410E+00  0.1731842E+01  0.7650962E-01 -0.4709668E+00
  0.7807410E+01 -0.6407370E+01 -0.2310450E+00  0.4281067E+00  0.1731836E+01  0.6864464E-01 -0.4225675E+00
  0.8397840E+01 -0.5611260E+01 -0.2310450E+00  0.3744538E+00  0.1731932E+01  0.6007722E-01 -0.3696030E+00
  0.8907410E+01 -0.4761110E+01 -0.2310450E+00  0.3177175E+00  0.1731934E+01  0.5097487E-01 -0.3136016E+00
  0.9331180E+01 -0.3865100E+01 -0.2310450E+00  0.2582256E+00  0.1731842E+01  0.4140662E-01 -0.2548842E+00
  0.9665100E+01 -0.2931870E+01 -0.2310450E+00  0.1960573E+00  0.1731773E+01  0.3142443E-01 -0.1935225E+00
  0.9905930E+01 -0.1970410E+01 -0.2310450E+00  0.1314845E+00  0.1731938E+01  0.2109603E-01 -0.1297811E+00
  0.1005140E+02 -0.9899690E+00 -0.2310450E+00  0.6584078E-01  0.1732192E+01  0.1058036E-01 -0.6498511E-01
  0.1010000E+02  0.0000000E+00 -0.4105000E+00  0.8722998E-07  0.1789900E+01  0.1895986E-07 -0.8514454E-07
  0.1005140E+02  0.9899730E+00 -0.4105000E+00  0.6535200E-01 -0.1409458E+01 -0.1049813E-01  0.6450328E-01
  0.9905930E+01  0.1970410E+01 -0.4105000E+00  0.1305642E+00 -0.1409756E+01 -0.2093538E-01  0.1288748E+00
  0.9665100E+01  0.2931880E+01 -0.4105000E+00  0.1946821E+00 -0.1409917E+01 -0.3118540E-01  0.1921681E+00
  0.9331180E+01  0.3865100E+01 -0.4105000E+00  0.2564695E+00 -0.1409865E+01 -0.4109618E-01  0.2531556E+00
  0.8907400E+01  0.4761110E+01 -0.4105000E+00  0.3154382E+00 -0.1409741E+01 -0.5058374E-01  0.3113559E+00
  0.8397840E+01  0.5611260E+01 -0.4105000E+00  0.3718356E+00 -0.1409757E+01 -0.5962165E-01  0.3670245E+00
  0.7807410E+01  0.6407370E+01 -0.4105000E+00  0.4250763E+00 -0.1409846E+01 -0.6812120E-01  0.4195824E+00
  0.7141780E+01  0.7141780E+01 -0.4105000E+00  0.4738972E+00 -0.1409863E+01 -0.7593703E-01  0.4677735E+00
  0.6407370E+01  0.7807410E+01 -0.4105000E+00  0.5175030E+00 -0.1409778E+01 -0.8296810E-01  0.5108088E+00
  0.5611260E+01  0.8397840E+01 -0.4105000E+00  0.5564847E+00 -0.1409756E+01 -0.8922959E-01  0.5492843E+00
  0.4761110E+01  0.8907410E+01 -0.4105000E+00  0.5907622E+00 -0.1409823E+01 -0.9468659E-01  0.5831247E+00
  0.3865100E+01  0.9331180E+01 -0.4105000E+00  0.6191744E+00 -0.1409862E+01 -0.9921660E-01  0.6111735E+00
  0.2931870E+01  0.9665100E+01 -0.4105000E+00  0.6407819E+00 -0.1409795E+01 -0.1027213E+00  0.6324949E+00
  0.1970410E+01  0.9905930E+01 -0.4105000E+00  0.6564216E+00 -0.1409757E+01 -0.1052535E+00  0.6479282E+00
  0.9899730E+00  0.1005140E+02 -0.4105000E+00  0.6665025E+00 -0.1409808E+01 -0.1068362E+00  0.6578842E+00
 -0.4414850E-06  0.1010000E+02 -0.4105000E+00  0.6701911E+00 -0.1409863E+01 -0.1073910E+00  0.6615310E+00
 -0.9899740E+00  0.1005140E+02 -0.4105000E+00  0.6665027E+00 -0.1409808E+01 -0.1068363E+00  0.6578844E+00
 -0.1970410E+01  0.9905930E+01 -0.4105000E+00  0.6564217E+00 -0.1409756E+01 -0.1052540E+00  0.6479282E+00
 -0.2931880E+01  0.9665100E+01 -0.4105000E+00  0.6407822E+00 -0.1409795E+01 -0.1027215E+00  0.6324952E+00
 -0.3865100E+01  0.9331180E+01 -0.4105000E+00  0.6191744E+00 -0.1409863E+01 -0.9921626E-01  0.6111736E+00
 -0.4761110E+01  0.8907400E+01 -0.4105000E+00  0.5907631E+00 -0.1409822E+01 -0.9468723E-01  0.5831255E+00
 -0.5611260E+01  0.8397840E+01 -0.4105000E+00  0.5564849E+00 -0.1409756E+01 -0.8922965E-01  0.5492846E+00
 -0.6407370E+01  0.7807410E+01 -0.4105000E+00  0.5175030E+00 -0.1409777E+01 -0.8296838E-01  0.5108088E+00
 -0.7141780E+01  0.7141780E+01 -0.4105000E+00  0.4738974E+00 -0.1409863E+01 -0.7593698E-01  0.4677738E+00