 VARIABLES="X" "Y" "Z" "abs(eta) (m)" "angle(phi) (rad)" "PRE1" "PRE2"
ZONE N=   3200 ,E =    3136 ,F=FEPOINT,ET=QUADRILATERAL
  0.1100000E+02  0.0000000E+00  0.0000000E+00  0.3134781E+00  0.2486833E+01  0.2486490E+00 -0.1908984E+00
  0.1094700E+02  0.1078190E+01  0.0000000E+00  0.2974133E+00  0.2497456E+01  0.2378172E+00 -0.1785991E+00
  0.1078860E+02  0.2145990E+01  0.0000000E+00  0.2777416E+00  0.2512943E+01  0.2246436E+00 -0.1633269E+00
  0.1052630E+02  0.3193130E+01  0.0000000E+00  0.2547658E+00  0.2536206E+01  0.2094894E+00 -0.1449821E+00
  0.1016270E+02  0.4209520E+01  0.0000000E+00  0.2292862E+00  0.2570798E+01  0.1929379E+00 -0.1238836E+00
  0.9701130E+01  0.5185360E+01  0.0000000E+00  0.2013048E+00  0.2626101E+01  0.1751453E+00 -0.9923568E-01
  0.9146170E+01  0.6111270E+01  0.0000000E+00  0.1723532E+00  0.2711503E+01  0.1566567E+00 -0.7186306E-01
  0.8503110E+01  0.6978330E+01  0.0000000E+00  0.1442797E+00  0.2846825E+01  0.1380568E+00 -0.4191576E-01
  0.7778170E+01  0.7778170E+01  0.0000000E+00  0.1203504E+00  0.3059170E+01  0.1199418E+00 -0.9908376E-02
  0.6978330E+01  0.8503110E+01  0.0000000E+00  0.1055447E+00 -0.2907146E+01  0.1026573E+00  0.2451855E-01
  0.6111270E+01  0.9146170E+01  0.0000000E+00  0.1056907E+00 -0.2529764E+01  0.8651830E-01  0.6070501E-01
  0.5185360E+01  0.9701130E+01  0.0000000E+00  0.1217541E+00 -0.2203602E+01  0.7200649E-01  0.9817902E-01
  0.4209520E+01  0.1016270E+02  0.0000000E+00  0.1486654E+00 -0.1981947E+01  0.5941626E-01  0.1362759E+00
  0.3193130E+01  0.1052630E+02  0.0000000E+00  0.1815903E+00 -0.1844185E+01  0.4902865E-01  0.1748464E+00
  0.2145990E+01  0.1078860E+02  0.0000000E+00  0.2174044E+00 -0.1759647E+01  0.4081330E-01  0.2135391E+00
  0.1078190E+01  0.1094700E+02  0.0000000E+00  0.2540956E+00 -0.1708484E+01  0.3487535E-01  0.2516909E+00
 -0.4808250E-06  0.1100000E+02  0.0000000E+00  0.2903856E+00 -0.1678004E+01  0.3107198E-01  0.2887184E+00
 -0.1078190E+01  0.1094700E+02  0.0000000E+00  0.3254239E+00 -0.1661359E+01  0.2943087E-01  0.3240903E+00
 -0.2145990E+01  0.1078860E+02  0.0000000E+00  0.3591470E+00 -0.1653500E+01  0.2966898E-01  0.3579195E+00
 -0.3193130E+01  0.1052630E+02  0.0000000E+00  0.3908849E+00 -0.1651464E+01  0.3149763E-01  0.3896138E+00
 -0.4209520E+01  0.1016270E+02  0.0000000E+00  0.4202937E+00 -0.1652957E+01  0.3449281E-01  0.4188759E+00
 -0.5185370E+01  0.9701130E+01  0.0000000E+00  0.4466183E+00 -0.1656962E+01  0.3843551E-01  0.4449614E+00
 -0.6111270E+01  0.9146160E+01  0.0000000E+00  0.4704441E+00 -0.1662394E+01  0.4303123E-01  0.4684719E+00
 -0.6978330E+01  0.8503120E+01  0.0000000E+00  0.4913458E+00 -0.1668302E+01  0.4783299E-01  0.4890120E+00
 -0.7778170E+01  0.7778170E+01  0.0000000E+00  0.5092982E+00 -0.1673962E+01  0.5244872E-01  0.5065904E+00
 -0.8503120E+01  0.6978330E+01  0.0000000E+00  0.5233846E+00 -0.1679072E+01  0.5655923E-01  0.5203196E+00
 -0.9146170E+01  0.6111270E+01  0.0000000E+00  0.5345121E+00 -0.1683420E+01  0.6007179E-01  0.5311258E+00
 -0.9701130E+01  0.5185360E+01  0.0000000E+00  0.5423928E+00 -0.1686596E+01  0.6266883E-01  0.5387602E+00
 -0.1016270E+02  0.4209520E+01  0.0000000E+00  0.5471652E+00 -0.1688446E+01  0.6422526E-01  0.5433828E+00
 -0.1052630E+02  0.3193130E+01  0.0000000E+00  0.5478237E+00 -0.1688832E+01  0.6451286E-01  0.5440119E+00
 -0.1078860E+02  0.2145990E+01  0.0000000E+00  0.5453763E+00 -0.1687829E+01  0.6368151E-01  0.5416456E+00
 -0.1094700E+02  0.1078190E+01  0.0000000E+00  0.5396411E+00 -0.1685423E+01  0.6172172E-01  0.5360998E+00
 -0.1100000E+02 -0.9616510E-06  0.0000000E+00  0.5308619E+00 -0.1681864E+01  0.5884029E-01  0.5275909E+00
 -0.1094700E+02 -0.1078190E+01  0.0000000E+00  0.5180699E+00 -0.1677218E+01  0.5502984E-01  0.5151389E+00
 -0.1078860E+02 -0.2146000E+01  0.0000000E+00  0.5022295E+00 -0.1671703E+01  0.5059259E-01  0.4996748E+00
 -0.1052630E+02 -0.3193130E+01  0.0000000E+00  0.4832861E+00 -0.1665777E+01  0.4583364E-01  0.4811079E+00
 -0.1016270E+02 -0.4209520E+01  0.0000000E+00  0.4616032E+00 -0.1660122E+01  0.4117818E-01  0.4597628E+00
 -0.9701130E+01 -0.5185360E+01  0.0000000E+00  0.4364408E+00 -0.1655350E+01  0.3685885E-01  0.4348816E+00
 -0.9146160E+01 -0.6111270E+01  0.0000000E+00  0.4086160E+00 -0.1652028E+01  0.3315612E-01  0.4072686E+00
 -0.8503110E+01 -0.6978330E+01  0.0000000E+00  0.3783211E+00 -0.1651554E+01  0.3051898E-01  0.3770882E+00
 -0.7778170E+01 -0.7778180E+01  0.0000000E+00  0.3461048E+00 -0.1655658E+01  0.2933564E-01  0.3448594E+00
 -0.6978330E+01 -0.8503110E+01  0.0000000E+00  0.3116999E+00 -0.1666949E+01  0.2992469E-01  0.3102601E+00
 -0.6111270E+01 -0.9146170E+01  0.0000000E+00  0.2758330E+00 -0.1688420E+01  0.3236968E-01  0.2739271E+00
 -0.5185360E+01 -0.9701130E+01  0.0000000E+00  0.2392176E+00 -0.1725913E+01  0.3695806E-01  0.2363454E+00
 -0.4209510E+01 -0.1016270E+02  0.0000000E+00  0.2029488E+00 -0.1788113E+01  0.4375789E-01  0.1981753E+00
 -0.3193130E+01 -0.1052630E+02  0.0000000E+00  0.1681473E+00 -0.1890979E+01  0.5292272E-01  0.1596017E+00
 -0.2145990E+01 -0.1078860E+02  0.0000000E+00  0.1369556E+00 -0.2059191E+01  0.6426074E-01  0.1209437E+00
 -0.1078190E+01 -0.1094700E+02  0.0000000E+00  0.1135669E+00 -0.2323697E+01  0.7765228E-01  0.8287074E-01
  0.1311740E-06 -0.1100000E+02  0.0000000E+00  0.1035064E+00 -0.2681543E+01  0.9274489E-01  0.4595608E-01
  0.1078190E+01 -0.1094700E+02  0.0000000E+00  0.1098867E+00 -0.3043535E+01  0.1093588E+00  0.1075791E-01
  0.2145990E+01 -0.1078860E+02  0.0000000E+00  0.1291836E+00  0.2963582E+01  0.1271422E+00 -0.2287474E-01
  0.3193140E+01 -0.1052630E+02  0.0000000E+00  0.1554022E+00  0.2784291E+01  0.1455877E+00 -0.5435153E-01
  0.4209520E+01 -0.1016270E+02  0.0000000E+00  0.1840782E+00  0.2671467E+01  0.1641078E+00 -0.8338709E-01
  0.5185360E+01 -0.9701130E+01  0.0000000E+00  0.2124523E+00  0.2601656E+01  0.1822292E+00 -0.1092178E+00
  0.6111270E+01 -0.9146160E+01  0.0000000E+00  0.2396428E+00  0.2555824E+01  0.1996914E+00 -0.1324841E+00
  0.6978330E+01 -0.8503110E+01  0.0000000E+00  0.2644709E+00  0.2525635E+01  0.2158665E+00 -0.1527956E+00
  0.7778180E+01 -0.7778170E+01  0.0000000E+00  0.2863296E+00  0.2505164E+01  0.2302730E+00 -0.1701734E+00
  0.8503120E+01 -0.6978320E+01  0.0000000E+00  0.3040921E+00  0.2492922E+01  0.2423273E+00 -0.1837104E+00
  0.9146170E+01 -0.6111270E+01  0.0000000E+00  0.3183034E+00  0.2484730E+01  0.2520683E+00 -0.1943673E+00
  0.9701130E+01 -0.5185360E+01  0.0000000E+00  0.3284461E+00  0.2479582E+01  0.2590644E+00 -0.2018971E+00
  0.1016270E+02 -0.4209520E+01  0.0000000E+00  0.3345091E+00  0.2476378E+01  0.2631866E+00 -0.2064683E+00
  0.1052630E+02 -0.3193130E+01  0.0000000E+00  0.3355013E+00  0.2476408E+01  0.2639733E+00 -0.2070729E+00
  0.1078860E+02 -0.2145990E+01  0.0000000E+00  0.3323387E+00  0.2477870E+01  0.2617847E+00 -0.2047384E+00
  0.1094700E+02 -0.1078180E+01  0.0000000E+00  0.3248741E+00  0.2481251E+01  0.2565800E+00 -0.1992735E+00
  0.1100000E+02  0.0000000E+00 -0.2568960E-01  0.3130633E+00  0.2486856E+01  0.2483243E+00 -0.1906400E+00
  0.1094700E+02  0.1078190E+01 -0.2568960E-01  0.2970434E+00  0.2497425E+01  0.2375159E+00 -0.1783843E+00
  0.1078860E+02  0.2145990E+01 -0.2568960E-01  0.2774029E+00  0.2512896E+01  0.2243620E+00 -0.1631381E+00
  0.1052630E+02  0.3193130E+01 -0.2568960E-01  0.2544546E+00  0.2536162E+01  0.2092271E+00 -0.1448144E+00
  0.1016270E+02  0.4209520E+01 -0.2568960E-01  0.2289862E+00  0.2570819E+01  0.1926881E+00 -0.1237174E+00
  0.9701130E+01  0.5185360E+01 -0.2568960E-01  0.2010541E+00  0.2626039E+01  0.1749211E+00 -0.9912306E-01
  0.9146170E+01  0.6111270E+01 -0.2568960E-01  0.1721431E+00  0.2711397E+01  0.1564581E+00 -0.7179207E-01
  0.8503110E+01  0.6978330E+01 -0.2568960E-01  0.1441043E+00  0.2846697E+01  0.1378837E+00 -0.4188245E-01
  0.7778170E+01  0.7778170E+01 -0.2568960E-01  0.1201988E+00  0.3059155E+01  0.1197906E+00 -0.9897666E-02
  0.6978330E+01  0.8503110E+01 -0.2568960E-01  0.1054050E+00 -0.2907268E+01  0.1025244E+00  0.2447362E-01
  0.6111270E+01  0.9146170E+01 -0.2568960E-01  0.1055439E+00 -0.2529902E+01  0.8640651E-01  0.6060887E-01
  0.5185360E+01  0.9701130E+01 -0.2568960E-01  0.1215825E+00 -0.2203710E+01  0.7191559E-01  0.9803292E-01
  0.4209520E+01  0.1016270E+02 -0.2568960E-01  0.1484658E+00 -0.1982024E+01  0.5934696E-01  0.1360883E+00
  0.3193130E+01  0.1052630E+02 -0.2568960E-01  0.1813468E+00 -0.1844205E+01  0.4896635E-01  0.1746109E+00
  0.2145990E+01  0.1078860E+02 -0.2568960E-01  0.2171119E+00 -0.1759659E+01  0.4076093E-01  0.2132513E+00
  0.1078190E+01  0.1094700E+02 -0.2568960E-01  0.2537523E+00 -0.1708501E+01  0.3483244E-01  0.2513502E+00
 -0.4808250E-06  0.1100000E+02 -0.2568960E-01  0.2899905E+00 -0.1678046E+01  0.3104172E-01  0.2883243E+00
 -0.1078190E+01  0.1094700E+02 -0.2568960E-01  0.3249965E+00 -0.1661379E+01  0.2939894E-01  0.3236641E+00
 -0.2145990E+01  0.1078860E+02 -0.2568960E-01  0.3586763E+00 -0.1653516E+01  0.2963579E-01  0.3574499E+00
 -0.3193130E+01  0.1052630E+02 -0.2568960E-01  0.3903682E+00 -0.1651482E+01  0.3146275E-01  0.3890982E+00
 -0.4209520E+01  0.1016270E+02 -0.2568960E-01  0.4197218E+00 -0.1652988E+01  0.3445888E-01  0.4183049E+00
 -0.5185370E+01  0.9701130E+01 -0.2568960E-01  0.4460348E+00 -0.1656990E+01  0.3839794E-01  0.4443790E+00
 -0.6111270E+01  0.9146160E+01 -0.2568960E-01  0.4698313E+00 -0.1662421E+01  0.4298777E-01  0.4678605E+00
 -0.6978330E+01  0.8503120E+01 -0.2568960E-01  0.4907006E+00 -0.1668327E+01  0.4778242E-01  0.4883687E+00
 -0.7778170E+01  0.7778170E+01 -0.2568960E-01  0.5086045E+00 -0.1673989E+01  0.5239096E-01  0.5058989E+00
 -0.8503120E+01  0.6978330E+01 -0.2568960E-01  0.5227006E+00 -0.1679105E+01  0.5650247E-01  0.5196378E+00
 -0.9146170E+01  0.6111270E+01 -0.2568960E-01  0.5338178E+00 -0.1683453E+01  0.6001123E-01  0.5304339E+00
 -0.9701130E+01  0.5185360E+01 -0.2568960E-01  0.5416833E+00 -0.1686628E+01  0.6260372E-01  0.5380535E+00
 -0.1016270E+02  0.4209520E+01 -0.2568960E-01  0.5464192E+00 -0.1688472E+01  0.6415198E-01  0.5426403E+00
 -0.1052630E+02  0.3193130E+01 -0.2568960E-01  0.5471072E+00 -0.1688865E+01  0.6444617E-01  0.5432982E+00
 -0.1078860E+02  0.2145990E+01 -0.2568960E-01  0.5446677E+00 -0.1687863E+01  0.6361716E-01  0.5409397E+00
 -0.1094700E+02  0.1078190E+01 -0.2568960E-01  0.5389349E+00 -0.1685456E+01  0.6165889E-01  0.5353961E+00
 -0.1100000E+02 -0.9616510E-06 -0.2568960E-01  0.5301381E+00 -0.1681890E+01  0.5877417E-01  0.5268700E+00
 -0.1094700E+02 -0.1078190E+01 -0.2568960E-01  0.5173911E+00 -0.1677246E+01  0.5497207E-01  0.5144625E+00
 -0.1078860E+02 -0.2146000E+01 -0.2568960E-01  0.5015760E+00 -0.1671733E+01  0.5054171E-01  0.4990231E+00
 -0.1052630E+02 -0.3193130E+01 -0.2568960E-01  0.4826553E+00 -0.1665807E+01  0.4578859E-01  0.4804784E+00
 -0.1016270E+02 -0.4209520E+01 -0.2568960E-01  0.4609748E+00 -0.1660151E+01  0.4113541E-01  0.4591357E+00
 -0.9701130E+01 -0.5185360E+01 -0.2568960E-01  0.4358653E+00 -0.1655371E+01  0.3681912E-01  0.4343074E+00
 -0.9146160E+01 -0.6111270E+01 -0.2568960E-01  0.4080829E+00 -0.1652049E+01  0.3312129E-01  0.4067366E+00
 -0.8503110E+01 -0.6978330E+01 -0.2568960E-01  0.3778264E+00 -0.1651578E+01  0.3048816E-01  0.3765943E+00
 -0.7778170E+01 -0.7778180E+01 -0.2568960E-01  0.3456334E+00 -0.1655693E+01  0.2930798E-01  0.3443885E+00
 -0.6978330E+01 -0.8503110E+01 -0.2568960E-01  0.3112832E+00 -0.1666964E+01  0.2988919E-01  0.3098449E+00
 -0.6111270E+01 -0.9146170E+01 -0.2568960E-01  0.2754674E+00 -0.1688431E+01  0.3232974E-01  0.2735637E+00
 -0.5185360E+01 -0.9701130E+01 -0.2568960E-01  0.2389003E+00 -0.1725930E+01  0.3691296E-01  0.2360313E+00
 -0.4209510E+01 -0.1016270E+02 -0.2568960E-01  0.2026734E+00 -0.1788172E+01  0.4371006E-01  0.1979039E+00
 -0.3193130E+01 -0.1052630E+02 -0.2568960E-01  0.1679134E+00 -0.1891022E+01  0.5285584E-01  0.1593774E+00
 -0.2145990E+01 -0.1078860E+02 -0.2568960E-01  0.1367646E+00 -0.2059242E+01  0.6417733E-01  0.1207718E+00
 -0.1078190E+01 -0.1094700E+02 -0.2568960E-01  0.1134113E+00 -0.2323767E+01  0.7755170E-01  0.8275177E-01
  0.1311740E-06 -0.1100000E+02 -0.2568960E-01  0.1033750E+00 -0.2681616E+01  0.9263051E-01  0.4589099E-01
  0.1078190E+01 -0.1094700E+02 -0.2568960E-01  0.1097464E+00 -0.3043725E+01  0.1092213E+00  0.1072347E-01
  0.2145990E+01 -0.1078860E+02 -0.2568960E-01  0.1290222E+00  0.2963428E+01  0.1269798E+00 -0.2286574E-01
  0.3193140E+01 -0.1052630E+02 -0.2568960E-01  0.1552074E+00  0.2784203E+01  0.1454003E+00 -0.5429624E-01
  0.4209520E+01 -0.1016270E+02 -0.2568960E-01  0.1838400E+00  0.2671485E+01  0.1638969E+00 -0.8327617E-01
  0.5185360E+01 -0.9701130E+01 -0.2568960E-01  0.2121943E+00  0.2601592E+01  0.1820008E+00 -0.1090968E+00
  0.6111270E+01 -0.9146160E+01 -0.2568960E-01  0.2393513E+00  0.2555763E+01  0.1994403E+00 -0.1323352E+00
  0.6978330E+01 -0.8503110E+01 -0.2568960E-01  0.2641422E+00  0.2525595E+01  0.2155923E+00 -0.1526142E+00
  0.7778180E+01 -0.7778170E+01 -0.2568960E-01  0.2859517E+00  0.2505187E+01  0.2299729E+00 -0.1699436E+00
  0.8503120E+01 -0.6978320E+01 -0.2568960E-01  0.3037176E+00  0.2492893E+01  0.2420235E+00 -0.1834911E+00
  0.9146170E+01 -0.6111270E+01 -0.2568960E-01  0.3179140E+00  0.2484696E+01  0.2517533E+00 -0.1941381E+00
  0.9701130E+01 -0.5185360E+01 -0.2568960E-01  0.3280382E+00  0.2479558E+01  0.2587379E+00 -0.2016525E+00
  0.1016270E+02 -0.4209520E+01 -0.2568960E-01  0.3340653E+00  0.2476401E+01  0.2628422E+00 -0.2061883E+00
  0.1052630E+02 -0.3193130E+01 -0.2568960E-01  0.3350851E+00  0.2476386E+01  0.2636413E+00 -0.2068219E+00
  0.1078860E+02 -0.2145990E+01 -0.2568960E-01  0.3319320E+00  0.2477840E+01  0.2614582E+00 -0.2044956E+00
  0.1094700E+02 -0.1078180E+01 -0.2568960E-01  0.3244728E+00  0.2481227E+01  0.2562583E+00 -0.1990335E+00
  0.1100000E+02  0.0000000E+00 -0.1027320E+00  0.3118396E+00  0.2486887E+01  0.2473597E+00 -0.1898871E+00
  0.1094700E+02  0.1078190E+01 -0.1027320E+00  0.2959563E+00  0.2497283E+01  0.2366215E+00 -0.1777651E+00
  0.1078860E+02  0.2145990E+01 -0.1027320E+00  0.2764118E+00  0.2512685E+01  0.2235261E+00 -0.1626025E+00
  0.1052630E+02  0.3193130E+01 -0.1027320E+00  0.2535353E+00  0.2535968E+01  0.2084431E+00 -0.1443316E+00
  0.1016270E+02  0.4209520E+01 -0.1027320E+00  0.2280966E+00  0.2570822E+01  0.1919399E+00 -0.1232361E+00
  0.9701130E+01  0.5185360E+01 -0.1027320E+00  0.2003105E+00  0.2625766E+01  0.1742471E+00 -0.9880405E-01
  0.9146170E+01  0.6111270E+01 -0.1027320E+00  0.1715174E+00  0.2710959E+01  0.1558582E+00 -0.7159933E-01
  0.8503110E+01  0.6978330E+01 -0.1027320E+00  0.1435726E+00  0.2846212E+01  0.1373547E+00 -0.4179461E-01
  0.7778170E+01  0.7778170E+01 -0.1027320E+00  0.1197345E+00  0.3059026E+01  0.1193266E+00 -0.9874825E-02
  0.6978330E+01  0.8503110E+01 -0.1027320E+00  0.1049716E+00 -0.2907691E+01  0.1021132E+00  0.2432975E-01
  0.6111270E+01  0.9146170E+01 -0.1027320E+00  0.1050866E+00 -0.2530298E+01  0.8605599E-01  0.6031219E-01
  0.5185360E+01  0.9701130E+01 -0.1027320E+00  0.1210567E+00 -0.2203925E+01  0.7162565E-01  0.9759351E-01
  0.4209520E+01  0.1016270E+02 -0.1027320E+00  0.1478612E+00 -0.1982146E+01  0.5912188E-01  0.1355269E+00
  0.3193130E+01  0.1052630E+02 -0.1027320E+00  0.1806141E+00 -0.1844162E+01  0.4876108E-01  0.1739075E+00
  0.2145990E+01  0.1078860E+02 -0.1027320E+00  0.2162380E+00 -0.1759601E+01  0.4058466E-01  0.2123953E+00
  0.1078190E+01  0.1094700E+02 -0.1027320E+00  0.2527304E+00 -0.1708475E+01  0.3468588E-01  0.2503389E+00
 -0.4808250E-06  0.1100000E+02 -0.1027320E+00  0.2888160E+00 -0.1678109E+01  0.3093423E-01  0.2871546E+00
 -0.1078190E+01  0.1094700E+02 -0.1027320E+00  0.3237294E+00 -0.1661388E+01  0.2928708E-01  0.3224019E+00
 -0.2145990E+01  0.1078860E+02 -0.1027320E+00  0.3572848E+00 -0.1653520E+01  0.2952231E-01  0.3560629E+00
 -0.3193130E+01  0.1052630E+02 -0.1027320E+00  0.3888381E+00 -0.1651501E+01  0.3134713E-01  0.3875725E+00
 -0.4209520E+01  0.1016270E+02 -0.1027320E+00  0.4180263E+00 -0.1653055E+01  0.3434767E-01  0.4166128E+00
 -0.5185370E+01  0.9701130E+01 -0.1027320E+00  0.4443088E+00 -0.1657055E+01  0.3827797E-01  0.4426568E+00
 -0.6111270E+01  0.9146160E+01 -0.1027320E+00  0.4680290E+00 -0.1662485E+01  0.4285278E-01  0.4660631E+00
 -0.6978330E+01  0.8503120E+01 -0.1027320E+00  0.4887937E+00 -0.1668394E+01  0.4762945E-01  0.4864676E+00
 -0.7778170E+01  0.7778170E+01 -0.1027320E+00  0.5065512E+00 -0.1674066E+01  0.5221824E-01  0.5038525E+00
 -0.8503120E+01  0.6978330E+01 -0.1027320E+00  0.5206806E+00 -0.1679201E+01  0.5633358E-01  0.5176242E+00
 -0.9146170E+01  0.6111270E+01 -0.1027320E+00  0.5317754E+00 -0.1683552E+01  0.5983392E-01  0.5283985E+00
 -0.9701130E+01  0.5185360E+01 -0.1027320E+00  0.5395858E+00 -0.1686723E+01  0.6241259E-01  0.5359641E+00
 -0.1016270E+02  0.4209520E+01 -0.1027320E+00  0.5442143E+00 -0.1688554E+01  0.6393714E-01  0.5404454E+00
 -0.1052630E+02  0.3193130E+01 -0.1027320E+00  0.5449903E+00 -0.1688966E+01  0.6425142E-01  0.5411896E+00
 -0.1078860E+02  0.2145990E+01 -0.1027320E+00  0.5425852E+00 -0.1687968E+01  0.6343041E-01  0.5388648E+00
 -0.1094700E+02  0.1078190E+01 -0.1027320E+00  0.5368513E+00 -0.1685557E+01  0.6147429E-01  0.5333201E+00
 -0.1100000E+02 -0.9616510E-06 -0.1027320E+00  0.5279979E+00 -0.1681970E+01  0.5857853E-01  0.5247383E+00
 -0.1094700E+02 -0.1078190E+01 -0.1027320E+00  0.5153849E+00 -0.1677327E+01  0.5480053E-01  0.5124632E+00
 -0.1078860E+02 -0.2146000E+01 -0.1027320E+00  0.4996546E+00 -0.1671815E+01  0.5038850E-01  0.4971074E+00
 -0.1052630E+02 -0.3193130E+01 -0.1027320E+00  0.4807892E+00 -0.1665888E+01  0.4565001E-01  0.4786171E+00
 -0.1016270E+02 -0.4209520E+01 -0.1027320E+00  0.4591137E+00 -0.1660222E+01  0.4100173E-01  0.4572791E+00
 -0.9701130E+01 -0.5185360E+01 -0.1027320E+00  0.4341649E+00 -0.1655411E+01  0.3669304E-01  0.4326116E+00
 -0.9146160E+01 -0.6111270E+01 -0.1027320E+00  0.4065091E+00 -0.1652079E+01  0.3300589E-01  0.4051670E+00
 -0.8503110E+01 -0.6978330E+01 -0.1027320E+00  0.3763598E+00 -0.1651611E+01  0.3038244E-01  0.3751314E+00
 -0.7778170E+01 -0.7778180E+01 -0.1027320E+00  0.3442355E+00 -0.1655756E+01  0.2921102E-01  0.3429939E+00
 -0.6978330E+01 -0.8503110E+01 -0.1027320E+00  0.3100476E+00 -0.1666953E+01  0.2976715E-01  0.3086154E+00
 -0.6111270E+01 -0.9146170E+01 -0.1027320E+00  0.2743816E+00 -0.1688391E+01  0.3219157E-01  0.2724866E+00
 -0.5185360E+01 -0.9701130E+01 -0.1027320E+00  0.2379551E+00 -0.1725898E+01  0.3675949E-01  0.2350986E+00
 -0.4209510E+01 -0.1016270E+02 -0.1027320E+00  0.2018491E+00 -0.1788253E+01  0.4354837E-01  0.1970954E+00
 -0.3193130E+01 -0.1052630E+02 -0.1027320E+00  0.1672098E+00 -0.1891040E+01  0.5263733E-01  0.1587086E+00
 -0.2145990E+01 -0.1078860E+02 -0.1027320E+00  0.1361821E+00 -0.2059283E+01  0.6390889E-01  0.1202547E+00
 -0.1078190E+01 -0.1094700E+02 -0.1027320E+00  0.1129306E+00 -0.2323903E+01  0.7723427E-01  0.8239053E-01
  0.1311740E-06 -0.1100000E+02 -0.1027320E+00  0.1029657E+00 -0.2681823E+01  0.9227321E-01  0.4569022E-01
  0.1078190E+01 -0.1094700E+02 -0.1027320E+00  0.1093118E+00 -0.3044358E+01  0.1087955E+00  0.1061211E-01
  0.2145990E+01 -0.1078860E+02 -0.1027320E+00  0.1285320E+00  0.2962829E+01  0.1264838E+00 -0.2285462E-01
  0.3193140E+01 -0.1052630E+02 -0.1027320E+00  0.1546226E+00  0.2783831E+01  0.1448324E+00 -0.5414550E-01
  0.4209520E+01 -0.1016270E+02 -0.1027320E+00  0.1831288E+00  0.2671460E+01  0.1632608E+00 -0.8295824E-01
  0.5185360E+01 -0.9701130E+01 -0.1027320E+00  0.2114282E+00  0.2601321E+01  0.1813143E+00 -0.1087520E+00
  0.6111270E+01 -0.9146160E+01 -0.1027320E+00  0.2384947E+00  0.2555489E+01  0.1986904E+00 -0.1319160E+00
  0.6978330E+01 -0.8503110E+01 -0.1027320E+00  0.2631734E+00  0.2525417E+01  0.2147744E+00 -0.1520928E+00
  0.7778180E+01 -0.7778170E+01 -0.1027320E+00  0.2848359E+00  0.2505211E+01  0.2290796E+00 -0.1692750E+00
  0.8503120E+01 -0.6978320E+01 -0.1027320E+00  0.3026161E+00  0.2492760E+01  0.2411215E+00 -0.1828577E+00
  0.9146170E+01 -0.6111270E+01 -0.1027320E+00  0.3167779E+00  0.2484536E+01  0.2508227E+00 -0.1934844E+00
  0.9701130E+01 -0.5185360E+01 -0.1027320E+00  0.3268403E+00  0.2479447E+01  0.2577707E+00 -0.2009449E+00
  0.1016270E+02 -0.4209520E+01 -0.1027320E+00  0.3327586E+00  0.2476439E+01  0.2618217E+00 -0.2053721E+00
  0.1052630E+02 -0.3193130E+01 -0.1027320E+00  0.3338633E+00  0.2476281E+01  0.2626585E+00 -0.2060952E+00
  0.1078860E+02 -0.2145990E+01 -0.1027320E+00  0.3307452E+00  0.2477695E+01  0.2604938E+00 -0.2038023E+00
  0.1094700E+02 -0.1078180E+01 -0.1027320E+00  0.3232930E+00  0.2481115E+01  0.2553042E+00 -0.1983384E+00
  0.1100000E+02  0.0000000E+00 -0.2310450E+00  0.3098598E+00  0.2486735E+01  0.2457605E+00 -0.1887191E+00
  0.1094700E+02  0.1078190E+01 -0.2310450E+00  0.2941629E+00  0.2496915E+01  0.2351225E+00 -0.1767745E+00
  0.1078860E+02  0.2145990E+01 -0.2310450E+00  0.2747777E+00  0.2512198E+01  0.2221259E+00 -0.1617495E+00
  0.1052630E+02  0.3193130E+01 -0.2310450E+00  0.2520196E+00  0.2535515E+01  0.2071320E+00 -0.1435625E+00
  0.1016270E+02  0.4209520E+01 -0.2310450E+00  0.2266534E+00  0.2570594E+01  0.1906975E+00 -0.1224999E+00
  0.9701130E+01  0.5185360E+01 -0.2310450E+00  0.1990821E+00  0.2625190E+01  0.1731220E+00 -0.9829781E-01
  0.9146170E+01  0.6111270E+01 -0.2310450E+00  0.1704842E+00  0.2710103E+01  0.1548583E+00 -0.7130075E-01
  0.8503110E+01  0.6978330E+01 -0.2310450E+00  0.1426942E+00  0.2845284E+01  0.1364757E+00 -0.4166562E-01
  0.7778170E+01  0.7778170E+01 -0.2310450E+00  0.1189640E+00  0.3058521E+01  0.1185538E+00 -0.9871220E-02
  0.6978330E+01  0.8503110E+01 -0.2310450E+00  0.1042514E+00 -0.2908473E+01  0.1014314E+00  0.2408347E-01
  0.6111270E+01  0.9146170E+01 -0.2310450E+00  0.1043265E+00 -0.2531007E+01  0.8547595E-01  0.5981533E-01
  0.5185360E+01  0.9701130E+01 -0.2310450E+00  0.1201847E+00 -0.2204317E+01  0.7114770E-01  0.9686267E-01
  0.4209520E+01  0.1016270E+02 -0.2310450E+00  0.1468538E+00 -0.1982316E+01  0.5874198E-01  0.1345936E+00
  0.3193130E+01  0.1052630E+02 -0.2310450E+00  0.1794054E+00 -0.1844095E+01  0.4842309E-01  0.1727469E+00
  0.2145990E+01  0.1078860E+02 -0.2310450E+00  0.2147984E+00 -0.1759500E+01  0.4029310E-01  0.2109854E+00
  0.1078190E+01  0.1094700E+02 -0.2310450E+00  0.2510467E+00 -0.1708428E+01  0.3444297E-01  0.2486727E+00
 -0.4808250E-06  0.1100000E+02 -0.2310450E+00  0.2868969E+00 -0.1678168E+01  0.3074540E-01  0.2852448E+00
 -0.1078190E+01  0.1094700E+02 -0.2310450E+00  0.3216475E+00 -0.1661385E+01  0.2909777E-01  0.3203286E+00
 -0.2145990E+01  0.1078860E+02 -0.2310450E+00  0.3550021E+00 -0.1653501E+01  0.2932671E-01  0.3537887E+00
 -0.3193130E+01  0.1052630E+02 -0.2310450E+00  0.3863257E+00 -0.1651504E+01  0.3114552E-01  0.3850682E+00
 -0.4209520E+01  0.1016270E+02 -0.2310450E+00  0.4152739E+00 -0.1653121E+01  0.3414859E-01  0.4138674E+00
 -0.5185370E+01  0.9701130E+01 -0.2310450E+00  0.4414807E+00 -0.1657122E+01  0.3806404E-01  0.4398367E+00
 -0.6111270E+01  0.9146160E+01 -0.2310450E+00  0.4650771E+00 -0.1662544E+01  0.4261009E-01  0.4631211E+00
 -0.6978330E+01  0.8503120E+01 -0.2310450E+00  0.4856714E+00 -0.1668455E+01  0.4735454E-01  0.4833573E+00
 -0.7778170E+01  0.7778170E+01 -0.2310450E+00  0.5032271E+00 -0.1674142E+01  0.5191369E-01  0.5005422E+00
 -0.8503120E+01  0.6978330E+01 -0.2310450E+00  0.5173743E+00 -0.1679303E+01  0.5602824E-01  0.5143316E+00
 -0.9146170E+01  0.6111270E+01 -0.2310450E+00  0.5284364E+00 -0.1683656E+01  0.5951245E-01  0.5250745E+00
 -0.9701130E+01  0.5185360E+01 -0.2310450E+00  0.5361547E+00 -0.1686820E+01  0.6206737E-01  0.5325500E+00
 -0.1016270E+02  0.4209520E+01 -0.2310450E+00  0.5406461E+00 -0.1688635E+01  0.6356180E-01  0.5368967E+00
 -0.1052630E+02  0.3193130E+01 -0.2310450E+00  0.5415280E+00 -0.1689070E+01  0.6389929E-01  0.5377448E+00
 -0.1078860E+02  0.2145990E+01 -0.2310450E+00  0.5391800E+00 -0.1688079E+01  0.6309157E-01  0.5354760E+00
 -0.1094700E+02  0.1078190E+01 -0.2310450E+00  0.5334428E+00 -0.1685663E+01  0.6114040E-01  0.5299274E+00
 -0.1100000E+02 -0.9616510E-06 -0.2310450E+00  0.5245352E+00 -0.1682049E+01  0.5823577E-01  0.5212924E+00
 -0.1094700E+02 -0.1078190E+01 -0.2310450E+00  0.5121001E+00 -0.1677405E+01  0.5449101E-01  0.5091928E+00
 -0.1078860E+02 -0.2146000E+01 -0.2310450E+00  0.4965107E+00 -0.1671896E+01  0.5011177E-01  0.4939754E+00
 -0.1052630E+02 -0.3193130E+01 -0.2310450E+00  0.4777329E+00 -0.1665973E+01  0.4540048E-01  0.4755707E+00
 -0.1016270E+02 -0.4209520E+01 -0.2310450E+00  0.4560959E+00 -0.1660292E+01  0.4076402E-01  0.4542706E+00
 -0.9701130E+01 -0.5185360E+01 -0.2310450E+00  0.4313764E+00 -0.1655439E+01  0.3646923E-01  0.4298321E+00
 -0.9146160E+01 -0.6111270E+01 -0.2310450E+00  0.4039290E+00 -0.1652096E+01  0.3280300E-01  0.4025949E+00
 -0.8503110E+01 -0.6978330E+01 -0.2310450E+00  0.3739535E+00 -0.1651641E+01  0.3019926E-01  0.3727321E+00
 -0.7778170E+01 -0.7778180E+01 -0.2310450E+00  0.3419589E+00 -0.1655815E+01  0.2903802E-01  0.3407238E+00
 -0.6978330E+01 -0.8503110E+01 -0.2310450E+00  0.3080154E+00 -0.1666918E+01  0.2956145E-01  0.3065936E+00
 -0.6111270E+01 -0.9146170E+01 -0.2310450E+00  0.2725955E+00 -0.1688314E+01  0.3196121E-01  0.2707154E+00
 -0.5185360E+01 -0.9701130E+01 -0.2310450E+00  0.2363985E+00 -0.1725842E+01  0.3650596E-01  0.2335628E+00
 -0.4209510E+01 -0.1016270E+02 -0.2310450E+00  0.2004912E+00 -0.1788339E+01  0.4327218E-01  0.1957658E+00
 -0.3193130E+01 -0.1052630E+02 -0.2310450E+00  0.1660475E+00 -0.1891080E+01  0.5227765E-01  0.1576033E+00
 -0.2145990E+01 -0.1078860E+02 -0.2310450E+00  0.1352175E+00 -0.2059368E+01  0.6346636E-01  0.1193976E+00
 -0.1078190E+01 -0.1094700E+02 -0.2310450E+00  0.1121335E+00 -0.2324155E+01  0.7670970E-01  0.8178966E-01
  0.1311740E-06 -0.1100000E+02 -0.2310450E+00  0.1022734E+00 -0.2682338E+01  0.9167618E-01  0.4533572E-01
  0.1078190E+01 -0.1094700E+02 -0.2310450E+00  0.1085907E+00 -0.3045518E+01  0.1080900E+00  0.1041674E-01
  0.2145990E+01 -0.1078860E+02 -0.2310450E+00  0.1277200E+00  0.2961711E+01  0.1256592E+00 -0.2285077E-01
  0.3193140E+01 -0.1052630E+02 -0.2310450E+00  0.1536550E+00  0.2783095E+01  0.1438864E+00 -0.5391265E-01
  0.4209520E+01 -0.1016270E+02 -0.2310450E+00  0.1819710E+00  0.2671158E+01  0.1622037E+00 -0.8248273E-01
  0.5185360E+01 -0.9701130E+01 -0.2310450E+00  0.2101644E+00  0.2600744E+01  0.1801681E+00 -0.1082059E+00
  0.6111270E+01 -0.9146160E+01 -0.2310450E+00  0.2370821E+00  0.2554902E+01  0.1974367E+00 -0.1312505E+00
  0.6978330E+01 -0.8503110E+01 -0.2310450E+00  0.2615748E+00  0.2524991E+01  0.2134053E+00 -0.1512599E+00
  0.7778180E+01 -0.7778170E+01 -0.2310450E+00  0.2830296E+00  0.2505039E+01  0.2275980E+00 -0.1682406E+00
  0.8503120E+01 -0.6978320E+01 -0.2310450E+00  0.3007999E+00  0.2492407E+01  0.2396100E+00 -0.1818451E+00
  0.9146170E+01 -0.6111270E+01 -0.2310450E+00  0.3149052E+00  0.2484131E+01  0.2492618E+00 -0.1924417E+00
  0.9701130E+01 -0.5185360E+01 -0.2310450E+00  0.3248645E+00  0.2479126E+01  0.2561483E+00 -0.1998125E+00
  0.1016270E+02 -0.4209520E+01 -0.2310450E+00  0.3306438E+00  0.2476299E+01  0.2601292E+00 -0.2041032E+00
  0.1052630E+02 -0.3193130E+01 -0.2310450E+00  0.3318486E+00  0.2475971E+01  0.2610099E+00 -0.2049324E+00
  0.1078860E+02 -0.2145990E+01 -0.2310450E+00  0.3287897E+00  0.2477314E+01  0.2588764E+00 -0.2026960E+00
  0.1094700E+02 -0.1078180E+01 -0.2310450E+00  0.3213480E+00  0.2480792E+01  0.2537045E+00 -0.1972272E+00
  0.1100000E+02  0.0000000E+00 -0.4105000E+00  0.3070712E+00  0.2486578E+01  0.2435195E+00 -0.1870587E+00
  0.1094700E+02  0.1078190E+01 -0.4105000E+00  0.2915782E+00  0.2496593E+01  0.2330002E+00 -0.1752962E+00
  0.1078860E+02  0.2145990E+01 -0.4105000E+00  0.2723866E+00  0.2511828E+01  0.2201337E+00 -0.1604232E+00
  0.1052630E+02  0.3193130E+01 -0.4105000E+00  0.2498342E+00  0.2535139E+01  0.2052823E+00 -0.1423948E+00
  0.1016270E+02  0.4209520E+01 -0.4105000E+00  0.2246288E+00  0.2570393E+01  0.1889697E+00 -0.1214437E+00
  0.9701130E+01  0.5185360E+01 -0.4105000E+00  0.1973327E+00  0.2624736E+01  0.1715565E+00 -0.9751192E-01
  0.9146170E+01  0.6111270E+01 -0.4105000E+00  0.1690055E+00  0.2709488E+01  0.1534716E+00 -0.7077667E-01
  0.8503110E+01  0.6978330E+01 -0.4105000E+00  0.1414633E+00  0.2844503E+01  0.1352662E+00 -0.4141173E-01
  0.7778170E+01  0.7778170E+01 -0.4105000E+00  0.1179098E+00  0.3058024E+01  0.1174984E+00 -0.9842123E-02
  0.6978330E+01  0.8503110E+01 -0.4105000E+00  0.1032950E+00 -0.2909225E+01  0.1005188E+00  0.2378698E-01
  0.6111270E+01  0.9146170E+01 -0.4105000E+00  0.1033394E+00 -0.2531845E+01  0.8471689E-01  0.5917844E-01
  0.5185360E+01  0.9701130E+01 -0.4105000E+00  0.1190254E+00 -0.2204998E+01  0.7052669E-01  0.9588030E-01
  0.4209520E+01  0.1016270E+02 -0.4105000E+00  0.1454739E+00 -0.1982725E+01  0.5824440E-01  0.1333051E+00
  0.3193130E+01  0.1052630E+02 -0.4105000E+00  0.1777373E+00 -0.1844274E+01  0.4800360E-01  0.1711322E+00
  0.2145990E+01  0.1078860E+02 -0.4105000E+00  0.2127949E+00 -0.1759650E+01  0.3994873E-01  0.2090114E+00
  0.1078190E+01  0.1094700E+02 -0.4105000E+00  0.2486983E+00 -0.1708560E+01  0.3415339E-01  0.2463420E+00
 -0.4808250E-06  0.1100000E+02 -0.4105000E+00  0.2842242E+00 -0.1678348E+01  0.3050983E-01  0.2825819E+00
 -0.1078190E+01  0.1094700E+02 -0.4105000E+00  0.3187099E+00 -0.1661508E+01  0.2887116E-01  0.3173995E+00
 -0.2145990E+01  0.1078860E+02 -0.4105000E+00  0.3517562E+00 -0.1653599E+01  0.2909319E-01  0.3505510E+00
 -0.3193130E+01  0.1052630E+02 -0.4105000E+00  0.3827782E+00 -0.1651587E+01  0.3089139E-01  0.3815296E+00
 -0.4209520E+01  0.1016270E+02 -0.4105000E+00  0.4114287E+00 -0.1653243E+01  0.3388268E-01  0.4100312E+00
 -0.5185370E+01  0.9701130E+01 -0.4105000E+00  0.4374717E+00 -0.1657243E+01  0.3777099E-01  0.4358380E+00
 -0.6111270E+01  0.9146160E+01 -0.4105000E+00  0.4608561E+00 -0.1662646E+01  0.4226987E-01  0.4589135E+00
 -0.6978330E+01  0.8503120E+01 -0.4105000E+00  0.4812472E+00 -0.1668541E+01  0.4696456E-01  0.4789501E+00
 -0.7778170E+01  0.7778170E+01 -0.4105000E+00  0.4985809E+00 -0.1674240E+01  0.5148332E-01  0.4959157E+00