 VARIABLES="X" "Y" "Z" "abs(eta) (m)" "angle(phi) (rad)" "PRE1" "PRE2"
ZONE N=   3200 ,E =    3136 ,F=FEPOINT,ET=QUADRILATERAL
  0.1100000E+02  0.0000000E+00  0.0000000E+00  0.9023952E-01  0.2492513E+01  0.7188843E-01 -0.5454561E-01
  0.1094700E+02  0.1078190E+01  0.0000000E+00  0.1036126E+00  0.2398369E+01  0.7628902E-01 -0.7011106E-01
  0.1078860E+02  0.2145990E+01  0.0000000E+00  0.1166016E+00  0.2335009E+01  0.8068472E-01 -0.8417787E-01
  0.1052630E+02  0.3193130E+01  0.0000000E+00  0.1290298E+00  0.2289427E+01  0.8494732E-01 -0.9712180E-01
  0.1016270E+02  0.4209520E+01  0.0000000E+00  0.1400724E+00  0.2258412E+01  0.8890350E-01 -0.1082426E+00
  0.9701130E+01  0.5185360E+01  0.0000000E+00  0.1496101E+00  0.2236781E+01  0.9243421E-01 -0.1176397E+00
  0.9146170E+01  0.6111270E+01  0.0000000E+00  0.1573132E+00  0.2222404E+01  0.9540502E-01 -0.1250813E+00
  0.8503110E+01  0.6978330E+01  0.0000000E+00  0.1636279E+00  0.2211511E+01  0.9781158E-01 -0.1311754E+00
  0.7778170E+01  0.7778170E+01  0.0000000E+00  0.1678240E+00  0.2205194E+01  0.9946808E-01 -0.1351703E+00
  0.6978330E+01  0.8503110E+01  0.0000000E+00  0.1700085E+00  0.2202099E+01  0.1003385E+00 -0.1372409E+00
  0.6111270E+01  0.9146170E+01  0.0000000E+00  0.1699791E+00  0.2202474E+01  0.1003726E+00 -0.1371795E+00
  0.5185360E+01  0.9701130E+01  0.0000000E+00  0.1683981E+00  0.2204369E+01  0.9969632E-01 -0.1357151E+00
  0.4209520E+01  0.1016270E+02  0.0000000E+00  0.1646316E+00  0.2209956E+01  0.9820620E-01 -0.1321329E+00
  0.3193130E+01  0.1052630E+02  0.0000000E+00  0.1589063E+00  0.2219260E+01  0.9597354E-01 -0.1266503E+00
  0.2145990E+01  0.1078860E+02  0.0000000E+00  0.1511417E+00  0.2234038E+01  0.9305406E-01 -0.1190997E+00
  0.1078190E+01  0.1094700E+02  0.0000000E+00  0.1420779E+00  0.2253535E+01  0.8963980E-01 -0.1102308E+00
 -0.4808250E-06  0.1100000E+02  0.0000000E+00  0.1313409E+00  0.2282306E+01  0.8576267E-01 -0.9947461E-01
 -0.1078190E+01  0.1094700E+02  0.0000000E+00  0.1193024E+00  0.2323606E+01  0.8156604E-01 -0.8706344E-01
 -0.2145990E+01  0.1078860E+02  0.0000000E+00  0.1061810E+00  0.2384542E+01  0.7717919E-01 -0.7292303E-01
 -0.3193130E+01  0.1052630E+02  0.0000000E+00  0.9287953E-01  0.2470890E+01  0.7276041E-01 -0.5772806E-01
 -0.4209520E+01  0.1016270E+02  0.0000000E+00  0.7987776E-01  0.2600216E+01  0.6845525E-01 -0.4116232E-01
 -0.5185370E+01  0.9701130E+01  0.0000000E+00  0.6854636E-01  0.2792183E+01  0.6440446E-01 -0.2346635E-01
 -0.6111270E+01  0.9146160E+01  0.0000000E+00  0.6091506E-01  0.3064560E+01  0.6073442E-01 -0.4687816E-02
 -0.6978330E+01  0.8503120E+01  0.0000000E+00  0.5932841E-01 -0.2891906E+01  0.5748863E-01  0.1466007E-01
 -0.7778170E+01  0.7778170E+01  0.0000000E+00  0.6482834E-01 -0.2579020E+01  0.5483738E-01  0.3457709E-01
 -0.8503120E+01  0.6978330E+01  0.0000000E+00  0.7616003E-01 -0.2337600E+01  0.5284268E-01  0.5484525E-01
 -0.9146170E+01  0.6111270E+01  0.0000000E+00  0.9125861E-01 -0.2171117E+01  0.5155262E-01  0.7530246E-01
 -0.9701130E+01  0.5185360E+01  0.0000000E+00  0.1083786E+00 -0.2059448E+01  0.5087681E-01  0.9569469E-01
 -0.1016270E+02  0.4209520E+01  0.0000000E+00  0.1264134E+00 -0.1985289E+01  0.5090993E-01  0.1157088E+00
 -0.1052630E+02  0.3193130E+01  0.0000000E+00  0.1447161E+00 -0.1935418E+01  0.5160522E-01  0.1352022E+00
 -0.1078860E+02  0.2145990E+01  0.0000000E+00  0.1627860E+00 -0.1901801E+01  0.5290441E-01  0.1539494E+00
 -0.1094700E+02  0.1078190E+01  0.0000000E+00  0.1804846E+00 -0.1878388E+01  0.5464429E-01  0.1720136E+00
 -0.1100000E+02 -0.9616510E-06  0.0000000E+00  0.1971980E+00 -0.1862937E+01  0.5679361E-01  0.1888427E+00
 -0.1094700E+02 -0.1078190E+01  0.0000000E+00  0.2128221E+00 -0.1852840E+01  0.5923247E-01  0.2044133E+00
 -0.1078860E+02 -0.2146000E+01  0.0000000E+00  0.2270678E+00 -0.1846606E+01  0.6183649E-01  0.2184858E+00
 -0.1052630E+02 -0.3193130E+01  0.0000000E+00  0.2402467E+00 -0.1842482E+01  0.6447151E-01  0.2314344E+00
 -0.1016270E+02 -0.4209520E+01  0.0000000E+00  0.2516456E+00 -0.1840324E+01  0.6700726E-01  0.2425604E+00
 -0.9701130E+01 -0.5185360E+01  0.0000000E+00  0.2613263E+00 -0.1839311E+01  0.6932970E-01  0.2519620E+00
 -0.9146160E+01 -0.6111270E+01  0.0000000E+00  0.2690344E+00 -0.1839115E+01  0.7132396E-01  0.2594078E+00
 -0.8503110E+01 -0.6978330E+01  0.0000000E+00  0.2753476E+00 -0.1838987E+01  0.7296355E-01  0.2655044E+00
 -0.7778170E+01 -0.7778180E+01  0.0000000E+00  0.2795040E+00 -0.1839131E+01  0.7410368E-01  0.2695016E+00
 -0.6978330E+01 -0.8503110E+01  0.0000000E+00  0.2816606E+00 -0.1839234E+01  0.7470360E-01  0.2715733E+00
 -0.6111270E+01 -0.9146170E+01  0.0000000E+00  0.2816073E+00 -0.1839365E+01  0.7472492E-01  0.2715122E+00
 -0.5185360E+01 -0.9701130E+01  0.0000000E+00  0.2800703E+00 -0.1839149E+01  0.7425893E-01  0.2700462E+00
 -0.4209510E+01 -0.1016270E+02  0.0000000E+00  0.2763433E+00 -0.1839016E+01  0.7323506E-01  0.2664624E+00
 -0.3193130E+01 -0.1052630E+02  0.0000000E+00  0.2706497E+00 -0.1838957E+01  0.7171077E-01  0.2609767E+00
 -0.2145990E+01 -0.1078860E+02  0.0000000E+00  0.2628445E+00 -0.1839357E+01  0.6974419E-01  0.2534225E+00
 -0.1078190E+01 -0.1094700E+02  0.0000000E+00  0.2536903E+00 -0.1840054E+01  0.6748575E-01  0.2445494E+00
  0.1311740E-06 -0.1100000E+02  0.0000000E+00  0.2426520E+00 -0.1841923E+01  0.6498629E-01  0.2337879E+00
  0.1078190E+01 -0.1094700E+02  0.0000000E+00  0.2299902E+00 -0.1845417E+01  0.6236909E-01  0.2213720E+00
  0.2145990E+01 -0.1078860E+02  0.0000000E+00  0.2156693E+00 -0.1851541E+01  0.5975568E-01  0.2072257E+00
  0.3193140E+01 -0.1052630E+02  0.0000000E+00  0.2003815E+00 -0.1860604E+01  0.5726253E-01  0.1920254E+00
  0.4209520E+01 -0.1016270E+02  0.0000000E+00  0.1838846E+00 -0.1874756E+01  0.5503675E-01  0.1754551E+00
  0.5185360E+01 -0.9701130E+01  0.0000000E+00  0.1664819E+00 -0.1896029E+01  0.5319584E-01  0.1577543E+00
  0.6111270E+01 -0.9146160E+01  0.0000000E+00  0.1483297E+00 -0.1927899E+01  0.5185028E-01  0.1389721E+00
  0.6978330E+01 -0.8503110E+01  0.0000000E+00  0.1300415E+00 -0.1973852E+01  0.5100626E-01  0.1196208E+00
  0.7778180E+01 -0.7778170E+01  0.0000000E+00  0.1119068E+00 -0.2042188E+01  0.5081986E-01  0.9970190E-01
  0.8503120E+01 -0.6978320E+01  0.0000000E+00  0.9457380E-01 -0.2144496E+01  0.5132927E-01  0.7943241E-01
  0.9146170E+01 -0.6111270E+01  0.0000000E+00  0.7899800E-01 -0.2298741E+01  0.5256025E-01  0.5897545E-01
  0.9701130E+01 -0.5185360E+01  0.0000000E+00  0.6669150E-01 -0.2524649E+01  0.5439696E-01  0.3858402E-01
  0.1016270E+02 -0.4209520E+01  0.0000000E+00  0.5985917E-01 -0.2826122E+01  0.5690514E-01  0.1857215E-01
  0.1052630E+02 -0.3193130E+01  0.0000000E+00  0.6002399E-01  0.3126292E+01  0.6001697E-01 -0.9183976E-03
  0.1078860E+02 -0.2145990E+01  0.0000000E+00  0.6661809E-01  0.2841986E+01  0.6365043E-01 -0.1966198E-01
  0.1094700E+02 -0.1078180E+01  0.0000000E+00  0.7743946E-01  0.2632811E+01  0.6763087E-01 -0.3772182E-01
  0.1100000E+02  0.0000000E+00 -0.2568960E-01  0.9018272E-01  0.2492420E+01  0.7183814E-01 -0.5451793E-01
  0.1094700E+02  0.1078190E+01 -0.2568960E-01  0.1035502E+00  0.2398264E+01  0.7623576E-01 -0.7007683E-01
  0.1078860E+02  0.2145990E+01 -0.2568960E-01  0.1165367E+00  0.2334876E+01  0.8062856E-01 -0.8414183E-01
  0.1052630E+02  0.3193130E+01 -0.2568960E-01  0.1289518E+00  0.2289344E+01  0.8488794E-01 -0.9707007E-01
  0.1016270E+02  0.4209520E+01 -0.2568960E-01  0.1399857E+00  0.2258346E+01  0.8884127E-01 -0.1081815E+00
  0.9701130E+01  0.5185360E+01 -0.2568960E-01  0.1495202E+00  0.2236706E+01  0.9236985E-01 -0.1175759E+00
  0.9146170E+01  0.6111270E+01 -0.2568960E-01  0.1572267E+00  0.2222303E+01  0.9533995E-01 -0.1250221E+00
  0.8503110E+01  0.6978330E+01 -0.2568960E-01  0.1635290E+00  0.2211442E+01  0.9774344E-01 -0.1311028E+00
  0.7778170E+01  0.7778170E+01 -0.2568960E-01  0.1677198E+00  0.2205136E+01  0.9939834E-01 -0.1350922E+00
  0.6978330E+01  0.8503110E+01 -0.2568960E-01  0.1699059E+00  0.2202032E+01  0.1002688E+00 -0.1371649E+00
  0.6111270E+01  0.9146170E+01 -0.2568960E-01  0.1698860E+00  0.2202382E+01  0.1003049E+00 -0.1371137E+00
  0.5185360E+01  0.9701130E+01 -0.2568960E-01  0.1682968E+00  0.2204300E+01  0.9962701E-01 -0.1356402E+00
  0.4209520E+01  0.1016270E+02 -0.2568960E-01  0.1645293E+00  0.2209894E+01  0.9813709E-01 -0.1320568E+00
  0.3193130E+01  0.1052630E+02 -0.2568960E-01  0.1588105E+00  0.2219190E+01  0.9590671E-01 -0.1265808E+00
  0.2145990E+01  0.1078860E+02 -0.2568960E-01  0.1510586E+00  0.2233934E+01  0.9299057E-01 -0.1190440E+00
  0.1078190E+01  0.1094700E+02 -0.2568960E-01  0.1419927E+00  0.2253456E+01  0.8957732E-01 -0.1101718E+00
 -0.4808250E-06  0.1100000E+02 -0.2568960E-01  0.1312593E+00  0.2282236E+01  0.8570250E-01 -0.9941874E-01
 -0.1078190E+01  0.1094700E+02 -0.2568960E-01  0.1192302E+00  0.2323516E+01  0.8150888E-01 -0.8701809E-01
 -0.2145990E+01  0.1078860E+02 -0.2568960E-01  0.1061211E+00  0.2384397E+01  0.7712507E-01 -0.7289311E-01
 -0.3193130E+01  0.1052630E+02 -0.2568960E-01  0.9282306E-01  0.2470776E+01  0.7270963E-01 -0.5770121E-01
 -0.4209520E+01  0.1016270E+02 -0.2568960E-01  0.7982679E-01  0.2600112E+01  0.6840730E-01 -0.4114313E-01
 -0.5185370E+01  0.9701130E+01 -0.2568960E-01  0.6850100E-01  0.2792052E+01  0.6435876E-01 -0.2345927E-01
 -0.6111270E+01  0.9146160E+01 -0.2568960E-01  0.6087172E-01  0.3064367E+01  0.6069030E-01 -0.4696166E-02
 -0.6978330E+01  0.8503120E+01 -0.2568960E-01  0.5928459E-01 -0.2892015E+01  0.5744777E-01  0.1464297E-01
 -0.7778170E+01  0.7778170E+01 -0.2568960E-01  0.6478090E-01 -0.2579067E+01  0.5479887E-01  0.3454922E-01
 -0.8503120E+01  0.6978330E+01 -0.2568960E-01  0.7610506E-01 -0.2337608E+01  0.5280493E-01  0.5480528E-01
 -0.9146170E+01  0.6111270E+01 -0.2568960E-01  0.9119345E-01 -0.2171095E+01  0.5151413E-01  0.7524984E-01
 -0.9701130E+01  0.5185360E+01 -0.2568960E-01  0.1083032E+00 -0.2059436E+01  0.5084025E-01  0.9562878E-01
 -0.1016270E+02  0.4209520E+01 -0.2568960E-01  0.1263273E+00 -0.1985279E+01  0.5087410E-01  0.1156305E+00
 -0.1052630E+02  0.3193130E+01 -0.2568960E-01  0.1446201E+00 -0.1935398E+01  0.5156829E-01  0.1351136E+00
 -0.1078860E+02  0.2145990E+01 -0.2568960E-01  0.1626825E+00 -0.1901767E+01  0.5286546E-01  0.1538533E+00
 -0.1094700E+02  0.1078190E+01 -0.2568960E-01  0.1803661E+00 -0.1878370E+01  0.5460526E-01  0.1719017E+00
 -0.1100000E+02 -0.9616510E-06 -0.2568960E-01  0.1970681E+00 -0.1862923E+01  0.5675352E-01  0.1887190E+00
 -0.1094700E+02 -0.1078190E+01 -0.2568960E-01  0.2126851E+00 -0.1852822E+01  0.5919067E-01  0.2042827E+00
 -0.1078860E+02 -0.2146000E+01 -0.2568960E-01  0.2269287E+00 -0.1846579E+01  0.6179272E-01  0.2183536E+00
 -0.1052630E+02 -0.3193130E+01 -0.2568960E-01  0.2400922E+00 -0.1842464E+01  0.6442591E-01  0.2312867E+00
 -0.1016270E+02 -0.4209520E+01 -0.2568960E-01  0.2514812E+00 -0.1840308E+01  0.6695970E-01  0.2424030E+00
 -0.9701130E+01 -0.5185360E+01 -0.2568960E-01  0.2611596E+00 -0.1839293E+01  0.6928108E-01  0.2518024E+00
 -0.9146160E+01 -0.6111270E+01 -0.2568960E-01  0.2688716E+00 -0.1839092E+01  0.7127476E-01  0.2592525E+00
 -0.8503110E+01 -0.6978330E+01 -0.2568960E-01  0.2751713E+00 -0.1838969E+01  0.7291224E-01  0.2653357E+00
 -0.7778170E+01 -0.7778180E+01 -0.2568960E-01  0.2793219E+00 -0.1839114E+01  0.7405084E-01  0.2693273E+00
 -0.6978330E+01 -0.8503110E+01 -0.2568960E-01  0.2814805E+00 -0.1839217E+01  0.7465118E-01  0.2714010E+00
 -0.6111270E+01 -0.9146170E+01 -0.2568960E-01  0.2814375E+00 -0.1839343E+01  0.7467396E-01  0.2713500E+00
 -0.5185360E+01 -0.9701130E+01 -0.2568960E-01  0.2798917E+00 -0.1839132E+01  0.7420687E-01  0.2698754E+00
 -0.4209510E+01 -0.1016270E+02 -0.2568960E-01  0.2761635E+00 -0.1838999E+01  0.7318301E-01  0.2662903E+00
 -0.3193130E+01 -0.1052630E+02 -0.2568960E-01  0.2704768E+00 -0.1838939E+01  0.7166029E-01  0.2608113E+00
 -0.2145990E+01 -0.1078860E+02 -0.2568960E-01  0.2626855E+00 -0.1839333E+01  0.6969596E-01  0.2532709E+00
 -0.1078190E+01 -0.1094700E+02 -0.2568960E-01  0.2535280E+00 -0.1840036E+01  0.6743820E-01  0.2443942E+00
  0.1311740E-06 -0.1100000E+02 -0.2568960E-01  0.2424936E+00 -0.1841907E+01  0.6494021E-01  0.2336363E+00
  0.1078190E+01 -0.1094700E+02 -0.2568960E-01  0.2298414E+00 -0.1845399E+01  0.6232473E-01  0.2212300E+00
  0.2145990E+01 -0.1078860E+02 -0.2568960E-01  0.2155365E+00 -0.1851513E+01  0.5971317E-01  0.2070998E+00
  0.3193140E+01 -0.1052630E+02 -0.2568960E-01  0.2002520E+00 -0.1860585E+01  0.5722199E-01  0.1919023E+00
  0.4209520E+01 -0.1016270E+02 -0.2568960E-01  0.1837627E+00 -0.1874742E+01  0.5499788E-01  0.1753395E+00
  0.5185360E+01 -0.9701130E+01 -0.2568960E-01  0.1663720E+00 -0.1896010E+01  0.5315781E-01  0.1576512E+00
  0.6111270E+01 -0.9146160E+01 -0.2568960E-01  0.1482340E+00 -0.1927863E+01  0.5181188E-01  0.1388843E+00
  0.6978330E+01 -0.8503110E+01 -0.2568960E-01  0.1299544E+00 -0.1973832E+01  0.5096980E-01  0.1195418E+00
  0.7778180E+01 -0.7778170E+01 -0.2568960E-01  0.1118296E+00 -0.2042180E+01  0.5078399E-01  0.9963359E-01
  0.8503120E+01 -0.6978320E+01 -0.2568960E-01  0.9450649E-01 -0.2144491E+01  0.5129232E-01  0.7937615E-01
  0.9146170E+01 -0.6111270E+01 -0.2568960E-01  0.7893935E-01 -0.2298737E+01  0.5252101E-01  0.5893186E-01
  0.9701130E+01 -0.5185360E+01 -0.2568960E-01  0.6664228E-01 -0.2524682E+01  0.5435808E-01  0.3855378E-01
  0.1016270E+02 -0.4209520E+01 -0.2568960E-01  0.5981555E-01 -0.2826200E+01  0.5686514E-01  0.1855414E-01
  0.1052630E+02 -0.3193130E+01 -0.2568960E-01  0.5998183E-01  0.3126153E+01  0.5997468E-01 -0.9260477E-03
  0.1078860E+02 -0.2145990E+01 -0.2568960E-01  0.6657413E-01  0.2841782E+01  0.6360441E-01 -0.1966197E-01
  0.1094700E+02 -0.1078180E+01 -0.2568960E-01  0.7739015E-01  0.2632687E+01  0.6758314E-01 -0.3770615E-01
  0.1100000E+02  0.0000000E+00 -0.1027320E+00  0.9000177E-01  0.2492270E+01  0.7168583E-01 -0.5441930E-01
  0.1094700E+02  0.1078190E+01 -0.1027320E+00  0.1033524E+00  0.2398058E+01  0.7607572E-01 -0.6995857E-01
  0.1078860E+02  0.2145990E+01 -0.1027320E+00  0.1163350E+00  0.2334553E+01  0.8046197E-01 -0.8402211E-01
  0.1052630E+02  0.3193130E+01 -0.1027320E+00  0.1287069E+00  0.2289197E+01  0.8471248E-01 -0.9689815E-01
  0.1016270E+02  0.4209520E+01 -0.1027320E+00  0.1397094E+00  0.2258269E+01  0.8865761E-01 -0.1079748E+00
  0.9701130E+01  0.5185360E+01 -0.1027320E+00  0.1492390E+00  0.2236590E+01  0.9218241E-01 -0.1173656E+00
  0.9146170E+01  0.6111270E+01 -0.1027320E+00  0.1569598E+00  0.2222093E+01  0.9515193E-01 -0.1248298E+00
  0.8503110E+01  0.6978330E+01 -0.1027320E+00  0.1632207E+00  0.2211343E+01  0.9754624E-01 -0.1308653E+00
  0.7778170E+01  0.7778170E+01 -0.1027320E+00  0.1673893E+00  0.2205083E+01  0.9919542E-01 -0.1348312E+00
  0.6978330E+01  0.8503110E+01 -0.1027320E+00  0.1695862E+00  0.2201941E+01  0.1000676E+00 -0.1369158E+00
  0.6111270E+01  0.9146170E+01 -0.1027320E+00  0.1695978E+00  0.2202199E+01  0.1001098E+00 -0.1368994E+00
  0.5185360E+01  0.9701130E+01 -0.1027320E+00  0.1679797E+00  0.2204207E+01  0.9942682E-01 -0.1353939E+00
  0.4209520E+01  0.1016270E+02 -0.1027320E+00  0.1642053E+00  0.2209840E+01  0.9793668E-01 -0.1318021E+00
  0.3193130E+01  0.1052630E+02 -0.1027320E+00  0.1585109E+00  0.2219086E+01  0.9571264E-01 -0.1263519E+00
  0.2145990E+01  0.1078860E+02 -0.1027320E+00  0.1508016E+00  0.2233713E+01  0.9280603E-01 -0.1188620E+00
  0.1078190E+01  0.1094700E+02 -0.1027320E+00  0.1417252E+00  0.2253326E+01  0.8939435E-01 -0.1099759E+00
 -0.4808250E-06  0.1100000E+02 -0.1027320E+00  0.1310002E+00  0.2282150E+01  0.8552473E-01 -0.9922986E-01
 -0.1078190E+01  0.1094700E+02 -0.1027320E+00  0.1190027E+00  0.2323353E+01  0.8133920E-01 -0.8686533E-01
 -0.2145990E+01  0.1078860E+02 -0.1027320E+00  0.1059349E+00  0.2384036E+01  0.7696353E-01 -0.7279298E-01
 -0.3193130E+01  0.1052630E+02 -0.1027320E+00  0.9264395E-01  0.2470539E+01  0.7255566E-01 -0.5760711E-01
 -0.4209520E+01  0.1016270E+02 -0.1027320E+00  0.7966485E-01  0.2599943E+01  0.6826157E-01 -0.4107123E-01
 -0.5185370E+01  0.9701130E+01 -0.1027320E+00  0.6835915E-01  0.2791770E+01  0.6421889E-01 -0.2342879E-01
 -0.6111270E+01  0.9146160E+01 -0.1027320E+00  0.6073657E-01  0.3063876E+01  0.6055324E-01 -0.4715498E-02
 -0.6978330E+01  0.8503120E+01 -0.1027320E+00  0.5915053E-01 -0.2892220E+01  0.5732086E-01  0.1459811E-01
 -0.7778170E+01  0.7778170E+01 -0.1027320E+00  0.6463727E-01 -0.2579116E+01  0.5467906E-01  0.3446994E-01
 -0.8503120E+01  0.6978330E+01 -0.1027320E+00  0.7593665E-01 -0.2337571E+01  0.5268610E-01  0.5468592E-01
 -0.9146170E+01  0.6111270E+01 -0.1027320E+00  0.9099416E-01 -0.2170976E+01  0.5139268E-01  0.7509147E-01
 -0.9701130E+01  0.5185360E+01 -0.1027320E+00  0.1080730E+00 -0.2059369E+01  0.5072581E-01  0.9542887E-01
 -0.1016270E+02  0.4209520E+01 -0.1027320E+00  0.1260620E+00 -0.1985240E+01  0.5076277E-01  0.1153897E+00
 -0.1052630E+02  0.3193130E+01 -0.1027320E+00  0.1443242E+00 -0.1935333E+01  0.5145401E-01  0.1348405E+00
 -0.1078860E+02  0.2145990E+01 -0.1027320E+00  0.1623644E+00 -0.1901659E+01  0.5274549E-01  0.1535581E+00
 -0.1094700E+02  0.1078190E+01 -0.1027320E+00  0.1800004E+00 -0.1878324E+01  0.5448663E-01  0.1715557E+00
 -0.1100000E+02 -0.9616510E-06 -0.1027320E+00  0.1966625E+00 -0.1862903E+01  0.5663299E-01  0.1883317E+00
 -0.1094700E+02 -0.1078190E+01 -0.1027320E+00  0.2122599E+00 -0.1852790E+01  0.5906583E-01  0.2038762E+00
 -0.1078860E+02 -0.2146000E+01 -0.1027320E+00  0.2265003E+00 -0.1846522E+01  0.6166363E-01  0.2179449E+00
 -0.1052630E+02 -0.3193130E+01 -0.1027320E+00  0.2396130E+00 -0.1842444E+01  0.6429265E-01  0.2308265E+00
 -0.1016270E+02 -0.4209520E+01 -0.1027320E+00  0.2509678E+00 -0.1840304E+01  0.6682197E-01  0.2419083E+00
 -0.9701130E+01 -0.5185360E+01 -0.1027320E+00  0.2606411E+00 -0.1839283E+01  0.6914106E-01  0.2513032E+00
 -0.9146160E+01 -0.6111270E+01 -0.1027320E+00  0.2683709E+00 -0.1839065E+01  0.7113498E-01  0.2587716E+00
 -0.8503110E+01 -0.6978330E+01 -0.1027320E+00  0.2746255E+00 -0.1838964E+01  0.7276615E-01  0.2648098E+00
 -0.7778170E+01 -0.7778180E+01 -0.1027320E+00  0.2787523E+00 -0.1839118E+01  0.7390093E-01  0.2687778E+00
 -0.6978330E+01 -0.8503110E+01 -0.1027320E+00  0.2809230E+00 -0.1839214E+01  0.7450256E-01  0.2708636E+00
 -0.6111270E+01 -0.9146170E+01 -0.1027320E+00  0.2809148E+00 -0.1839324E+01  0.7453008E-01  0.2708475E+00
 -0.5185360E+01 -0.9701130E+01 -0.1027320E+00  0.2793371E+00 -0.1839129E+01  0.7405907E-01  0.2693408E+00
 -0.4209510E+01 -0.1016270E+02 -0.1027320E+00  0.2756003E+00 -0.1839002E+01  0.7303447E-01  0.2657471E+00
 -0.3193130E+01 -0.1052630E+02 -0.1027320E+00  0.2699394E+00 -0.1838931E+01  0.7151601E-01  0.2602935E+00
 -0.2145990E+01 -0.1078860E+02 -0.1027320E+00  0.2621953E+00 -0.1839301E+01  0.6955791E-01  0.2528004E+00
 -0.1078190E+01 -0.1094700E+02 -0.1027320E+00  0.2530243E+00 -0.1840023E+01  0.6730086E-01  0.2439096E+00
  0.1311740E-06 -0.1100000E+02 -0.1027320E+00  0.2419979E+00 -0.1841900E+01  0.6480584E-01  0.2331591E+00
  0.1078190E+01 -0.1094700E+02 -0.1027320E+00  0.2293817E+00 -0.1845374E+01  0.6219469E-01  0.2207890E+00
  0.2145990E+01 -0.1078860E+02 -0.1027320E+00  0.2151281E+00 -0.1851447E+01  0.5958644E-01  0.2067113E+00
  0.3193140E+01 -0.1052630E+02 -0.1027320E+00  0.1998507E+00 -0.1860547E+01  0.5709994E-01  0.1915200E+00
  0.4209520E+01 -0.1016270E+02 -0.1027320E+00  0.1833839E+00 -0.1874719E+01  0.5488040E-01  0.1749794E+00
  0.5185360E+01 -0.9701130E+01 -0.1027320E+00  0.1660328E+00 -0.1895958E+01  0.5304113E-01  0.1573325E+00
  0.6111270E+01 -0.9146160E+01 -0.1027320E+00  0.1479402E+00 -0.1927744E+01  0.5169271E-01  0.1386151E+00
  0.6978330E+01 -0.8503110E+01 -0.1027320E+00  0.1296860E+00 -0.1973761E+01  0.5085597E-01  0.1192985E+00
  0.7778180E+01 -0.7778170E+01 -0.1027320E+00  0.1115927E+00 -0.2042140E+01  0.5067242E-01  0.9942450E-01
  0.8503120E+01 -0.6978320E+01 -0.1027320E+00  0.9430210E-01 -0.2144433E+01  0.5117684E-01  0.7920742E-01
  0.9146170E+01 -0.6111270E+01 -0.1027320E+00  0.7876024E-01 -0.2298666E+01  0.5239766E-01  0.5880187E-01
  0.9701130E+01 -0.5185360E+01 -0.1027320E+00  0.6649183E-01 -0.2524705E+01  0.5423627E-01  0.3846545E-01
  0.1016270E+02 -0.4209520E+01 -0.1027320E+00  0.5968321E-01 -0.2826308E+01  0.5674132E-01  0.1850698E-01
  0.1052630E+02 -0.3193130E+01 -0.1027320E+00  0.5985031E-01  0.3125867E+01  0.5984291E-01 -0.9411377E-03
  0.1078860E+02 -0.2145990E+01 -0.1027320E+00  0.6643716E-01  0.2841252E+01  0.6346316E-01 -0.1965512E-01
  0.1094700E+02 -0.1078180E+01 -0.1027320E+00  0.7723504E-01  0.2632423E+01  0.6743773E-01 -0.3764843E-01
  0.1100000E+02  0.0000000E+00 -0.2310450E+00  0.8970830E-01  0.2491991E+01  0.7143695E-01 -0.5426178E-01
  0.1094700E+02  0.1078190E+01 -0.2310450E+00  0.1030285E+00  0.2397715E+01  0.7581338E-01 -0.6976541E-01
  0.1078860E+02  0.2145990E+01 -0.2310450E+00  0.1160059E+00  0.2333994E+01  0.8018739E-01 -0.8382924E-01
  0.1052630E+02  0.3193130E+01 -0.2310450E+00  0.1283032E+00  0.2288950E+01  0.8442295E-01 -0.9661512E-01
  0.1016270E+02  0.4209520E+01 -0.2310450E+00  0.1392595E+00  0.2258106E+01  0.8835462E-01 -0.1076414E+00
  0.9701130E+01  0.5185360E+01 -0.2310450E+00  0.1487752E+00  0.2236381E+01  0.9187149E-01 -0.1170200E+00
  0.9146170E+01  0.6111270E+01 -0.2310450E+00  0.1565237E+00  0.2221715E+01  0.9484041E-01 -0.1245189E+00
  0.8503110E+01  0.6978330E+01 -0.2310450E+00  0.1627114E+00  0.2211161E+01  0.9721806E-01 -0.1304747E+00
  0.7778170E+01  0.7778170E+01 -0.2310450E+00  0.1668504E+00  0.2204956E+01  0.9885901E-01 -0.1344096E+00
  0.6978330E+01  0.8503110E+01 -0.2310450E+00  0.1690580E+00  0.2201770E+01  0.9973256E-01 -0.1365064E+00
  0.6111270E+01  0.9146170E+01 -0.2310450E+00  0.1691272E+00  0.2201861E+01  0.9978585E-01 -0.1365533E+00
  0.5185360E+01  0.9701130E+01 -0.2310450E+00  0.1674569E+00  0.2204032E+01  0.9909370E-01 -0.1349899E+00
  0.4209520E+01  0.1016270E+02 -0.2310450E+00  0.1636766E+00  0.2209708E+01  0.9760403E-01 -0.1313906E+00
  0.3193130E+01  0.1052630E+02 -0.2310450E+00  0.1580158E+00  0.2218899E+01  0.9539020E-01 -0.1259751E+00
  0.2145990E+01  0.1078860E+02 -0.2310450E+00  0.1503819E+00  0.2233311E+01  0.9250008E-01 -0.1185683E+00
  0.1078190E+01  0.1094700E+02 -0.2310450E+00  0.1412849E+00  0.2253101E+01  0.8909190E-01 -0.1096542E+00
 -0.4808250E-06  0.1100000E+02 -0.2310450E+00  0.1305779E+00  0.2281972E+01  0.8523146E-01 -0.9892518E-01
 -0.1078190E+01  0.1094700E+02 -0.2310450E+00  0.1186282E+00  0.2323077E+01  0.8105930E-01 -0.8661433E-01
 -0.2145990E+01  0.1078860E+02 -0.2310450E+00  0.1056318E+00  0.2383411E+01  0.7669795E-01 -0.7263266E-01
 -0.3193130E+01  0.1052630E+02 -0.2310450E+00  0.9235119E-01  0.2470146E+01  0.7230384E-01 -0.5745343E-01
 -0.4209520E+01  0.1016270E+02 -0.2310450E+00  0.7940216E-01  0.2599624E+01  0.6802344E-01 -0.4095747E-01
 -0.5185370E+01  0.9701130E+01 -0.2310450E+00  0.6812797E-01  0.2791312E+01  0.6399099E-01 -0.2337893E-01
 -0.6111270E+01  0.9146160E+01 -0.2310450E+00  0.6051708E-01  0.3063016E+01  0.6033036E-01 -0.4750326E-02
 -0.6978330E+01  0.8503120E+01 -0.2310450E+00  0.5893224E-01 -0.2892612E+01  0.5711502E-01  0.1452183E-01
 -0.7778170E+01  0.7778170E+01 -0.2310450E+00  0.6440171E-01 -0.2579254E+01  0.5448454E-01  0.3433679E-01
 -0.8503120E+01  0.6978330E+01 -0.2310450E+00  0.7566165E-01 -0.2337561E+01  0.5249472E-01  0.5448844E-01
 -0.9146170E+01  0.6111270E+01 -0.2310450E+00  0.9066643E-01 -0.2170818E+01  0.5119576E-01  0.7482910E-01
 -0.9701130E+01  0.5185360E+01 -0.2310450E+00  0.1076929E+00 -0.2059307E+01  0.5054146E-01  0.9509633E-01
 -0.1016270E+02  0.4209520E+01 -0.2310450E+00  0.1256255E+00 -0.1985200E+01  0.5058235E-01  0.1149922E+00
 -0.1052630E+02  0.3193130E+01 -0.2310450E+00  0.1438362E+00 -0.1935253E+01  0.5126923E-01  0.1343887E+00
 -0.1078860E+02  0.2145990E+01 -0.2310450E+00  0.1618410E+00 -0.1901493E+01  0.5255011E-01  0.1530719E+00
 -0.1094700E+02  0.1078190E+01 -0.2310450E+00  0.1793954E+00 -0.1878264E+01  0.5429324E-01  0.1709823E+00
 -0.1100000E+02 -0.9616510E-06 -0.2310450E+00  0.1959966E+00 -0.1862875E+01  0.5643591E-01  0.1876957E+00
 -0.1094700E+02 -0.1078190E+01 -0.2310450E+00  0.2115579E+00 -0.1852746E+01  0.5886158E-01  0.2032045E+00
 -0.1078860E+02 -0.2146000E+01 -0.2310450E+00  0.2257967E+00 -0.1846425E+01  0.6145104E-01  0.2172738E+00
 -0.1052630E+02 -0.3193130E+01 -0.2310450E+00  0.2388204E+00 -0.1842412E+01  0.6407269E-01  0.2300650E+00
 -0.1016270E+02 -0.4209520E+01 -0.2310450E+00  0.2501244E+00 -0.1840291E+01  0.6659432E-01  0.2410963E+00
 -0.9701130E+01 -0.5185360E+01 -0.2310450E+00  0.2597849E+00 -0.1839262E+01  0.6890862E-01  0.2504791E+00
 -0.9146160E+01 -0.6111270E+01 -0.2310450E+00  0.2675481E+00 -0.1839010E+01  0.7090267E-01  0.2579821E+00
 -0.8503110E+01 -0.6978330E+01 -0.2310450E+00  0.2737229E+00 -0.1838948E+01  0.7252285E-01  0.2639407E+00
 -0.7778170E+01 -0.7778180E+01 -0.2310450E+00  0.2778186E+00 -0.1839113E+01  0.7365210E-01  0.2678778E+00
 -0.6978330E+01 -0.8503110E+01 -0.2310450E+00  0.2800010E+00 -0.1839202E+01  0.7425475E-01  0.2699755E+00
 -0.6111270E+01 -0.9146170E+01 -0.2310450E+00  0.2800556E+00 -0.1839281E+01  0.7429047E-01  0.2700223E+00
 -0.5185360E+01 -0.9701130E+01 -0.2310450E+00  0.2784207E+00 -0.1839117E+01  0.7381277E-01  0.2684581E+00
 -0.4209510E+01 -0.1016270E+02 -0.2310450E+00  0.2746766E+00 -0.1838996E+01  0.7278811E-01  0.2648568E+00
 -0.3193130E+01 -0.1052630E+02 -0.2310450E+00  0.2690516E+00 -0.1838914E+01  0.7127617E-01  0.2594387E+00
 -0.2145990E+01 -0.1078860E+02 -0.2310450E+00  0.2613900E+00 -0.1839241E+01  0.6932892E-01  0.2520283E+00
 -0.1078190E+01 -0.1094700E+02 -0.2310450E+00  0.2521926E+00 -0.1839999E+01  0.6707400E-01  0.2431094E+00
  0.1311740E-06 -0.1100000E+02 -0.2310450E+00  0.2411838E+00 -0.1841885E+01  0.6458444E-01  0.2323758E+00
  0.1078190E+01 -0.1094700E+02 -0.2310450E+00  0.2286211E+00 -0.1845338E+01  0.6198042E-01  0.2200592E+00
  0.2145990E+01 -0.1078860E+02 -0.2310450E+00  0.2144566E+00 -0.1851339E+01  0.5937812E-01  0.2060724E+00
  0.3193140E+01 -0.1052630E+02 -0.2310450E+00  0.1991879E+00 -0.1860496E+01  0.5690083E-01  0.1908877E+00
  0.4209520E+01 -0.1016270E+02 -0.2310450E+00  0.1827613E+00 -0.1874686E+01  0.5468839E-01  0.1743871E+00
  0.5185360E+01 -0.9701130E+01 -0.2310450E+00  0.1654713E+00 -0.1895892E+01  0.5285140E-01  0.1568040E+00
  0.6111270E+01 -0.9146160E+01 -0.2310450E+00  0.1474568E+00 -0.1927564E+01  0.5149886E-01  0.1381716E+00
  0.6978330E+01 -0.8503110E+01 -0.2310450E+00  0.1292439E+00 -0.1973673E+01  0.5067222E-01  0.1188962E+00
  0.7778180E+01 -0.7778170E+01 -0.2310450E+00  0.1112031E+00 -0.2042104E+01  0.5049200E-01  0.9907919E-01
  0.8503120E+01 -0.6978320E+01 -0.2310450E+00  0.9396490E-01 -0.2144392E+01  0.5099063E-01  0.7892628E-01
  0.9146170E+01 -0.6111270E+01 -0.2310450E+00  0.7846575E-01 -0.2298592E+01  0.5219743E-01  0.5858585E-01
  0.9701130E+01 -0.5185360E+01 -0.2310450E+00  0.6624699E-01 -0.2524786E+01  0.5403966E-01  0.3831944E-01
  0.1016270E+02 -0.4209520E+01 -0.2310450E+00  0.5946697E-01 -0.2826557E+01  0.5654033E-01  0.1842584E-01
  0.1052630E+02 -0.3193130E+01 -0.2310450E+00  0.5963741E-01  0.3125359E+01  0.5962956E-01 -0.9681121E-03
  0.1078860E+02 -0.2145990E+01 -0.2310450E+00  0.6621445E-01  0.2840333E+01  0.6323238E-01 -0.1964737E-01
  0.1094700E+02 -0.1078180E+01 -0.2310450E+00  0.7698111E-01  0.2631994E+01  0.6719994E-01 -0.3755343E-01
  0.1100000E+02  0.0000000E+00 -0.4105000E+00  0.8929677E-01  0.2491515E+01  0.7108352E-01 -0.5404670E-01
  0.1094700E+02  0.1078190E+01 -0.4105000E+00  0.1025721E+00  0.2397174E+01  0.7543989E-01 -0.6949715E-01
  0.1078860E+02  0.2145990E+01 -0.4105000E+00  0.1155285E+00  0.2333249E+01  0.7979527E-01 -0.8354376E-01
  0.1052630E+02  0.3193130E+01 -0.4105000E+00  0.1277357E+00  0.2288523E+01  0.8400840E-01 -0.9622369E-01
  0.1016270E+02  0.4209520E+01 -0.4105000E+00  0.1386309E+00  0.2257777E+01  0.8792054E-01 -0.1071845E+00
  0.9701130E+01  0.5185360E+01 -0.4105000E+00  0.1481223E+00  0.2236002E+01  0.9142423E-01 -0.1165411E+00
  0.9146170E+01  0.6111270E+01 -0.4105000E+00  0.1558887E+00  0.2221174E+01  0.9438856E-01 -0.1240649E+00
  0.8503110E+01  0.6978330E+01 -0.4105000E+00  0.1619955E+00  0.2210817E+01  0.9674559E-01 -0.1299339E+00
  0.7778170E+01  0.7778170E+01 -0.4105000E+00  0.1660973E+00  0.2204674E+01  0.9837501E-01 -0.1338308E+00
  0.6978330E+01  0.8503110E+01 -0.4105000E+00  0.1683150E+00  0.2201436E+01  0.9924892E-01 -0.1359396E+00
  0.6111270E+01  0.9146170E+01 -0.4105000E+00  0.1684417E+00  0.2201362E+01  0.9931353E-01 -0.1360494E+00
  0.5185360E+01  0.9701130E+01 -0.4105000E+00  0.1667214E+00  0.2203696E+01  0.9861337E-01 -0.1344301E+00
  0.4209520E+01  0.1016270E+02 -0.4105000E+00  0.1629378E+00  0.2209421E+01  0.9712584E-01 -0.1308254E+00
  0.3193130E+01  0.1052630E+02 -0.4105000E+00  0.1573203E+00  0.2218545E+01  0.9492586E-01 -0.1254542E+00
  0.2145990E+01  0.1078860E+02 -0.4105000E+00  0.1497715E+00  0.2232744E+01  0.9205768E-01 -0.1181392E+00
  0.1078190E+01  0.1094700E+02 -0.4105000E+00  0.1406648E+00  0.2252705E+01  0.8865770E-01 -0.1092081E+00
 -0.4808250E-06  0.1100000E+02 -0.4105000E+00  0.1299881E+00  0.2281626E+01  0.8481242E-01 -0.9850767E-01
 -0.1078190E+01  0.1094700E+02 -0.4105000E+00  0.1181019E+00  0.2322619E+01  0.8066023E-01 -0.8626696E-01
 -0.2145990E+01  0.1078860E+02 -0.4105000E+00  0.1051930E+00  0.2382593E+01  0.7632016E-01 -0.7239340E-01
 -0.3193130E+01  0.1052630E+02 -0.4105000E+00  0.9193835E-01  0.2469548E+01  0.7194640E-01 -0.5723963E-01
 -0.4209520E+01  0.1016270E+02 -0.4105000E+00  0.7903337E-01  0.2599102E+01  0.6768621E-01 -0.4080257E-01
 -0.5185370E+01  0.9701130E+01 -0.4105000E+00  0.6780340E-01  0.2790634E+01  0.6367034E-01 -0.2331068E-01
 -0.6111270E+01  0.9146160E+01 -0.4105000E+00  0.6021120E-01  0.3061949E+01  0.6002034E-01 -0.4790387E-02
 -0.6978330E+01  0.8503120E+01 -0.4105000E+00  0.5862740E-01 -0.2893144E+01  0.5682725E-01  0.1441650E-01
 -0.7778170E+01  0.7778170E+01 -0.4105000E+00  0.6407187E-01 -0.2579448E+01  0.5421210E-01  0.3415045E-01