 VARIABLES="X" "Y" "Z" "abs(eta) (m)" "angle(phi) (rad)" "PRE1" "PRE2"
ZONE N=   3200 ,E =    3136 ,F=FEPOINT,ET=QUADRILATERAL
  0.1010000E+02  0.0000000E+00  0.0000000E+00  0.2602899E+00  0.2339113E+01  0.1808821E+00 -0.1871698E+00
  0.1005140E+02  0.9899730E+00  0.0000000E+00  0.2417544E+00  0.2354559E+01  0.1706664E+00 -0.1712255E+00
  0.9905930E+01  0.1970410E+01  0.0000000E+00  0.2198172E+00  0.2379500E+01  0.1590142E+00 -0.1517698E+00
  0.9665100E+01  0.2931880E+01  0.0000000E+00  0.1958904E+00  0.2416313E+01  0.1465875E+00 -0.1299428E+00
  0.9331180E+01  0.3865100E+01  0.0000000E+00  0.1702064E+00  0.2475150E+01  0.1337866E+00 -0.1052205E+00
  0.8907400E+01  0.4761110E+01  0.0000000E+00  0.1441246E+00  0.2566360E+01  0.1209300E+00 -0.7840816E-01
  0.8397840E+01  0.5611260E+01  0.0000000E+00  0.1187134E+00  0.2718136E+01  0.1082279E+00 -0.4878100E-01
  0.7807410E+01  0.6407370E+01  0.0000000E+00  0.9772202E-01  0.2961942E+01  0.9614930E-01 -0.1746152E-01
  0.7141780E+01  0.7141780E+01  0.0000000E+00  0.8663879E-01 -0.2961774E+01  0.8524183E-01  0.1549545E-01
  0.6407370E+01  0.7807410E+01  0.0000000E+00  0.9034903E-01 -0.2560874E+01  0.7553799E-01  0.4956772E-01
  0.5611260E+01  0.8397840E+01  0.0000000E+00  0.1084515E+00 -0.2241104E+01  0.6737306E-01  0.8498592E-01
  0.4761110E+01  0.8907410E+01  0.0000000E+00  0.1352812E+00 -0.2036804E+01  0.6078494E-01  0.1208561E+00
  0.3865100E+01  0.9331180E+01  0.0000000E+00  0.1662823E+00 -0.1915125E+01  0.5613114E-01  0.1565219E+00
  0.2931870E+01  0.9665100E+01  0.0000000E+00  0.1991318E+00 -0.1841106E+01  0.5317418E-01  0.1919010E+00
  0.1970410E+01  0.9905930E+01  0.0000000E+00  0.2326514E+00 -0.1796829E+01  0.5214027E-01  0.2267335E+00
  0.9899730E+00  0.1005140E+02  0.0000000E+00  0.2658350E+00 -0.1770208E+01  0.5266000E-01  0.2605671E+00
 -0.4414850E-06  0.1010000E+02  0.0000000E+00  0.2974725E+00 -0.1755696E+01  0.5468974E-01  0.2924020E+00
 -0.9899740E+00  0.1005140E+02  0.0000000E+00  0.3278155E+00 -0.1748385E+01  0.5791076E-01  0.3226598E+00
 -0.1970410E+01  0.9905930E+01  0.0000000E+00  0.3561933E+00 -0.1746603E+01  0.6229891E-01  0.3507029E+00
 -0.2931880E+01  0.9665100E+01  0.0000000E+00  0.3826836E+00 -0.1747718E+01  0.6735253E-01  0.3767099E+00
 -0.3865100E+01  0.9331180E+01  0.0000000E+00  0.4060961E+00 -0.1750766E+01  0.7269120E-01  0.3995372E+00
 -0.4761110E+01  0.8907400E+01  0.0000000E+00  0.4272507E+00 -0.1754720E+01  0.7813916E-01  0.4200445E+00
 -0.5611260E+01  0.8397840E+01  0.0000000E+00  0.4452456E+00 -0.1759342E+01  0.8345260E-01  0.4373549E+00
 -0.6407370E+01  0.7807410E+01  0.0000000E+00  0.4607175E+00 -0.1763703E+01  0.8832514E-01  0.4521717E+00
 -0.7141780E+01  0.7141780E+01  0.0000000E+00  0.4724672E+00 -0.1767413E+01  0.9229737E-01  0.4633643E+00
 -0.7807410E+01  0.6407370E+01  0.0000000E+00  0.4815478E+00 -0.1770319E+01  0.9544326E-01  0.4719946E+00
 -0.8397840E+01  0.5611260E+01  0.0000000E+00  0.4868913E+00 -0.1772298E+01  0.9744663E-01  0.4770402E+00
 -0.8907410E+01  0.4761110E+01  0.0000000E+00  0.4894962E+00 -0.1773138E+01  0.9837110E-01  0.4795098E+00
 -0.9331180E+01  0.3865100E+01  0.0000000E+00  0.4882385E+00 -0.1772779E+01  0.9794665E-01  0.4783129E+00
 -0.9665100E+01  0.2931880E+01  0.0000000E+00  0.4842338E+00 -0.1771308E+01  0.9644543E-01  0.4745321E+00
 -0.9905930E+01  0.1970410E+01  0.0000000E+00  0.4763673E+00 -0.1768695E+01  0.9365825E-01  0.4670695E+00
 -0.1005140E+02  0.9899730E+00  0.0000000E+00  0.4658132E+00 -0.1765143E+01  0.8996058E-01  0.4570438E+00
 -0.1010000E+02 -0.8829700E-06  0.0000000E+00  0.4516960E+00 -0.1761103E+01  0.8544265E-01  0.4435412E+00
 -0.1005140E+02 -0.9899740E+00  0.0000000E+00  0.4350244E+00 -0.1756709E+01  0.8041162E-01  0.4275280E+00
 -0.9905930E+01 -0.1970410E+01  0.0000000E+00  0.4148194E+00 -0.1752346E+01  0.7489749E-01  0.4080019E+00
 -0.9665100E+01 -0.2931880E+01  0.0000000E+00  0.3922773E+00 -0.1748546E+01  0.6936058E-01  0.3860966E+00
 -0.9331180E+01 -0.3865100E+01  0.0000000E+00  0.3669653E+00 -0.1746706E+01  0.6422040E-01  0.3613022E+00
 -0.8907400E+01 -0.4761110E+01  0.0000000E+00  0.3396900E+00 -0.1747299E+01  0.5964535E-01  0.3344125E+00
 -0.8397840E+01 -0.5611260E+01  0.0000000E+00  0.3098015E+00 -0.1752197E+01  0.5589037E-01  0.3047183E+00
 -0.7807400E+01 -0.6407370E+01  0.0000000E+00  0.2784694E+00 -0.1763116E+01  0.5322558E-01  0.2733354E+00
 -0.7141780E+01 -0.7141780E+01  0.0000000E+00  0.2459233E+00 -0.1784437E+01  0.5214052E-01  0.2403323E+00
 -0.6407370E+01 -0.7807410E+01  0.0000000E+00  0.2128088E+00 -0.1820337E+01  0.5255503E-01  0.2062173E+00
 -0.5611260E+01 -0.8397850E+01  0.0000000E+00  0.1793477E+00 -0.1881214E+01  0.5478284E-01  0.1707760E+00
 -0.4761110E+01 -0.8907410E+01  0.0000000E+00  0.1471124E+00 -0.1981246E+01  0.5870102E-01  0.1348935E+00
 -0.3865100E+01 -0.9331190E+01  0.0000000E+00  0.1183752E+00 -0.2147399E+01  0.6453566E-01  0.9923621E-01
 -0.2931870E+01 -0.9665100E+01  0.0000000E+00  0.9624210E-01 -0.2415890E+01  0.7199231E-01  0.6387213E-01
 -0.1970410E+01 -0.9905930E+01  0.0000000E+00  0.8626355E-01 -0.2797807E+01  0.8121588E-01  0.2907543E-01
 -0.9899710E+00 -0.1005140E+02  0.0000000E+00  0.9185397E-01  0.3090247E+01  0.9173291E-01 -0.4714249E-02
  0.1204410E-06 -0.1010000E+02  0.0000000E+00  0.1095741E+00  0.2802106E+01  0.1033203E+00 -0.3648847E-01
  0.9899760E+00 -0.1005140E+02  0.0000000E+00  0.1335106E+00  0.2618608E+01  0.1156645E+00 -0.6668431E-01
  0.1970410E+01 -0.9905930E+01  0.0000000E+00  0.1596879E+00  0.2507135E+01  0.1286116E+00 -0.9465358E-01
  0.2931880E+01 -0.9665100E+01  0.0000000E+00  0.1860130E+00  0.2436284E+01  0.1416325E+00 -0.1205864E+00
  0.3865100E+01 -0.9331180E+01  0.0000000E+00  0.2104863E+00  0.2392512E+01  0.1541423E+00 -0.1433339E+00
  0.4761110E+01 -0.8907410E+01  0.0000000E+00  0.2332131E+00  0.2363058E+01  0.1660345E+00 -0.1637708E+00
  0.5611260E+01 -0.8397840E+01  0.0000000E+00  0.2531023E+00  0.2344729E+01  0.1769066E+00 -0.1810105E+00
  0.6407370E+01 -0.7807410E+01  0.0000000E+00  0.2703857E+00  0.2331960E+01  0.1865025E+00 -0.1957684E+00
  0.7141780E+01 -0.7141780E+01  0.0000000E+00  0.2837463E+00  0.2324445E+01  0.1941687E+00 -0.2069070E+00
  0.7807410E+01 -0.6407370E+01  0.0000000E+00  0.2940755E+00  0.2319150E+01  0.2000989E+00 -0.2155014E+00
  0.8397840E+01 -0.5611260E+01  0.0000000E+00  0.3002820E+00  0.2316843E+01  0.2038137E+00 -0.2205204E+00
  0.8907410E+01 -0.4761110E+01  0.0000000E+00  0.3032342E+00  0.2315418E+01  0.2055000E+00 -0.2229815E+00
  0.9331180E+01 -0.3865100E+01  0.0000000E+00  0.3018331E+00  0.2316226E+01  0.2047296E+00 -0.2217860E+00
  0.9665100E+01 -0.2931870E+01  0.0000000E+00  0.2971729E+00  0.2317879E+01  0.2019295E+00 -0.2180280E+00
  0.9905930E+01 -0.1970410E+01  0.0000000E+00  0.2882017E+00  0.2322207E+01  0.1967467E+00 -0.2105967E+00
  0.1005140E+02 -0.9899690E+00  0.0000000E+00  0.2761274E+00  0.2328314E+01  0.1897326E+00 -0.2006187E+00
  0.1010000E+02  0.0000000E+00 -0.2568960E-01  0.2600335E+00  0.2339089E+01  0.1806995E+00 -0.1869896E+00
  0.1005140E+02  0.9899730E+00 -0.2568960E-01  0.2414545E+00  0.2354684E+01  0.1704760E+00 -0.1709919E+00
  0.9905930E+01  0.1970410E+01 -0.2568960E-01  0.2195187E+00  0.2379712E+01  0.1588303E+00 -0.1515301E+00
  0.9665100E+01  0.2931880E+01 -0.2568960E-01  0.1956452E+00  0.2416450E+01  0.1464218E+00 -0.1297601E+00
  0.9331180E+01  0.3865100E+01 -0.2568960E-01  0.1700331E+00  0.2475045E+01  0.1336394E+00 -0.1051274E+00
  0.8907400E+01  0.4761110E+01 -0.2568960E-01  0.1439481E+00  0.2566514E+01  0.1207940E+00 -0.7829340E-01
  0.8397840E+01  0.5611260E+01 -0.2568960E-01  0.1185631E+00  0.2718471E+01  0.1081072E+00 -0.4868301E-01
  0.7807410E+01  0.6407370E+01 -0.2568960E-01  0.9760630E-01  0.2962147E+01  0.9603901E-01 -0.1742119E-01
  0.7141780E+01  0.7141780E+01 -0.2568960E-01  0.8652619E-01 -0.2961899E+01  0.8513299E-01  0.1546468E-01
  0.6407370E+01  0.7807410E+01 -0.2568960E-01  0.9025122E-01 -0.2560788E+01  0.7545196E-01  0.4952056E-01
  0.5611260E+01  0.8397840E+01 -0.2568960E-01  0.1083416E+00 -0.2241085E+01  0.6730311E-01  0.8490111E-01
  0.4761110E+01  0.8907410E+01 -0.2568960E-01  0.1351307E+00 -0.2036786E+01  0.6071518E-01  0.1207227E+00
  0.3865100E+01  0.9331180E+01 -0.2568960E-01  0.1660918E+00 -0.1915017E+01  0.5604990E-01  0.1563486E+00
  0.2931870E+01  0.9665100E+01 -0.2568960E-01  0.1988982E+00 -0.1841116E+01  0.5311376E-01  0.1916753E+00
  0.1970410E+01  0.9905930E+01 -0.2568960E-01  0.2323683E+00 -0.1796883E+01  0.5208895E-01  0.2264548E+00
  0.9899730E+00  0.1005140E+02 -0.2568960E-01  0.2655207E+00 -0.1770225E+01  0.5260205E-01  0.2602581E+00
 -0.4414850E-06  0.1010000E+02 -0.2568960E-01  0.2971541E+00 -0.1755654E+01  0.5461879E-01  0.2920913E+00
 -0.9899740E+00  0.1005140E+02 -0.2568960E-01  0.3274197E+00 -0.1748406E+01  0.5784752E-01  0.3222690E+00
 -0.1970410E+01  0.9905930E+01 -0.2568960E-01  0.3557409E+00 -0.1746645E+01  0.6223470E-01  0.3502548E+00
 -0.2931880E+01  0.9665100E+01 -0.2568960E-01  0.3822216E+00 -0.1747747E+01  0.6728183E-01  0.3762532E+00
 -0.3865100E+01  0.9331180E+01 -0.2568960E-01  0.4056677E+00 -0.1750771E+01  0.7261638E-01  0.3991154E+00
 -0.4761110E+01  0.8907400E+01 -0.2568960E-01  0.4267301E+00 -0.1754750E+01  0.7805669E-01  0.4195303E+00
 -0.5611260E+01  0.8397840E+01 -0.2568960E-01  0.4446709E+00 -0.1759381E+01  0.8336174E-01  0.4367872E+00
 -0.6407370E+01  0.7807410E+01 -0.2568960E-01  0.4601560E+00 -0.1763739E+01  0.8823379E-01  0.4516175E+00
 -0.7141780E+01  0.7141780E+01 -0.2568960E-01  0.4719701E+00 -0.1767444E+01  0.9221489E-01  0.4628738E+00
 -0.7807410E+01  0.6407370E+01 -0.2568960E-01  0.4809585E+00 -0.1770356E+01  0.9534400E-01  0.4714134E+00
 -0.8397840E+01  0.5611260E+01 -0.2568960E-01  0.4862595E+00 -0.1772335E+01  0.9733813E-01  0.4764175E+00
 -0.8907410E+01  0.4761110E+01 -0.2568960E-01  0.4888979E+00 -0.1773176E+01  0.9826919E-01  0.4789200E+00
 -0.9331180E+01  0.3865100E+01 -0.2568960E-01  0.4877250E+00 -0.1772817E+01  0.9786178E-01  0.4778062E+00
 -0.9665100E+01  0.2931880E+01 -0.2568960E-01  0.4836427E+00 -0.1771346E+01  0.9634567E-01  0.4739491E+00
 -0.9905930E+01  0.1970410E+01 -0.2568960E-01  0.4757501E+00 -0.1768733E+01  0.9355457E-01  0.4664608E+00
 -0.1005140E+02  0.9899730E+00 -0.2568960E-01  0.4652439E+00 -0.1765178E+01  0.8986659E-01  0.4564821E+00
 -0.1010000E+02 -0.8829700E-06 -0.2568960E-01  0.4512206E+00 -0.1761126E+01  0.8536305E-01  0.4430724E+00
 -0.1005140E+02 -0.9899740E+00 -0.2568960E-01  0.4344958E+00 -0.1756743E+01  0.8032827E-01  0.4270058E+00
 -0.9905930E+01 -0.1970410E+01 -0.2568960E-01  0.4142861E+00 -0.1752386E+01  0.7481728E-01  0.4074744E+00
 -0.9665100E+01 -0.2931880E+01 -0.2568960E-01  0.3918011E+00 -0.1748572E+01  0.6928653E-01  0.3856261E+00
 -0.9331180E+01 -0.3865100E+01 -0.2568960E-01  0.3665771E+00 -0.1746694E+01  0.6414808E-01  0.3609208E+00
 -0.8907400E+01 -0.4761110E+01 -0.2568960E-01  0.3392826E+00 -0.1747322E+01  0.5958159E-01  0.3340100E+00
 -0.8397840E+01 -0.5611260E+01 -0.2568960E-01  0.3094126E+00 -0.1752242E+01  0.5583404E-01  0.3043332E+00
 -0.7807400E+01 -0.6407370E+01 -0.2568960E-01  0.2781364E+00 -0.1763132E+01  0.5316630E-01  0.2730077E+00
 -0.7141780E+01 -0.7141780E+01 -0.2568960E-01  0.2456560E+00 -0.1784369E+01  0.5206739E-01  0.2400747E+00
 -0.6407370E+01 -0.7807410E+01 -0.2568960E-01  0.2125615E+00 -0.1820347E+01  0.5249596E-01  0.2059771E+00
 -0.5611260E+01 -0.8397850E+01 -0.2568960E-01  0.1791385E+00 -0.1881269E+01  0.5472843E-01  0.1705738E+00
 -0.4761110E+01 -0.8907410E+01 -0.2568960E-01  0.1469441E+00 -0.1981246E+01  0.5863383E-01  0.1347391E+00
 -0.3865100E+01 -0.9331190E+01 -0.2568960E-01  0.1182291E+00 -0.2147291E+01  0.6444529E-01  0.9912075E-01
 -0.2931870E+01 -0.9665100E+01 -0.2568960E-01  0.9613893E-01 -0.2415799E+01  0.7190929E-01  0.6381025E-01
 -0.1970410E+01 -0.9905930E+01 -0.2568960E-01  0.8617864E-01 -0.2797560E+01  0.8112875E-01  0.2906689E-01
 -0.9899710E+00 -0.1005140E+02 -0.2568960E-01  0.9174891E-01  0.3090420E+01  0.9162880E-01 -0.4693022E-02
  0.1204410E-06 -0.1010000E+02 -0.2568960E-01  0.1094502E+00  0.2801921E+01  0.1031967E+00 -0.3646633E-01
  0.9899760E+00 -0.1005140E+02 -0.2568960E-01  0.1333452E+00  0.2618779E+01  0.1155326E+00 -0.6658188E-01
  0.1970410E+01 -0.9905930E+01 -0.2568960E-01  0.1594749E+00  0.2507406E+01  0.1284656E+00 -0.9449250E-01
  0.2931880E+01 -0.9665100E+01 -0.2568960E-01  0.1857830E+00  0.2436422E+01  0.1414739E+00 -0.1204179E+00
  0.3865100E+01 -0.9331180E+01 -0.2568960E-01  0.2102764E+00  0.2392450E+01  0.1539796E+00 -0.1432006E+00
  0.4761110E+01 -0.8907410E+01 -0.2568960E-01  0.2329216E+00  0.2363185E+01  0.1658478E+00 -0.1635450E+00
  0.5611260E+01 -0.8397840E+01 -0.2568960E-01  0.2527581E+00  0.2344920E+01  0.1767006E+00 -0.1807306E+00
  0.6407370E+01 -0.7807410E+01 -0.2568960E-01  0.2700501E+00  0.2332082E+01  0.1862948E+00 -0.1955028E+00
  0.7141780E+01 -0.7141780E+01 -0.2568960E-01  0.2834678E+00  0.2324436E+01  0.1939763E+00 -0.2067055E+00
  0.7807410E+01 -0.6407370E+01 -0.2568960E-01  0.2937096E+00  0.2319271E+01  0.1998757E+00 -0.2152092E+00
  0.8397840E+01 -0.5611260E+01 -0.2568960E-01  0.2998737E+00  0.2317014E+01  0.2035743E+00 -0.2201857E+00
  0.8907410E+01 -0.4761110E+01 -0.2568960E-01  0.3028574E+00  0.2315537E+01  0.2052711E+00 -0.2226800E+00
  0.9331180E+01 -0.3865100E+01 -0.2568960E-01  0.3015372E+00  0.2316228E+01  0.2045294E+00 -0.2215681E+00
  0.9665100E+01 -0.2931870E+01 -0.2568960E-01  0.2968040E+00  0.2318000E+01  0.2017050E+00 -0.2177332E+00
  0.9905930E+01 -0.1970410E+01 -0.2568960E-01  0.2878097E+00  0.2322382E+01  0.1965159E+00 -0.2102759E+00
  0.1005140E+02 -0.9899690E+00 -0.2568960E-01  0.2757834E+00  0.2328434E+01  0.1895204E+00 -0.2003459E+00
  0.1010000E+02  0.0000000E+00 -0.1027320E+00  0.2593337E+00  0.2338727E+01  0.1801457E+00 -0.1865515E+00
  0.1005140E+02  0.9899730E+00 -0.1027320E+00  0.2406924E+00  0.2354578E+01  0.1699199E+00 -0.1704700E+00
  0.9905930E+01  0.1970410E+01 -0.1027320E+00  0.2188523E+00  0.2379479E+01  0.1583131E+00 -0.1511070E+00
  0.9665100E+01  0.2931880E+01 -0.1027320E+00  0.1950132E+00  0.2416308E+01  0.1459304E+00 -0.1293617E+00
  0.9331180E+01  0.3865100E+01 -0.1027320E+00  0.1695568E+00  0.2474403E+01  0.1331977E+00 -0.1049185E+00
  0.8907400E+01  0.4761110E+01 -0.1027320E+00  0.1434871E+00  0.2566273E+01  0.1203883E+00 -0.7807173E-01
  0.8397840E+01  0.5611260E+01 -0.1027320E+00  0.1181775E+00  0.2718005E+01  0.1077330E+00 -0.4857498E-01
  0.7807410E+01  0.6407370E+01 -0.1027320E+00  0.9726678E-01  0.2961949E+01  0.9570150E-01 -0.1737955E-01
  0.7141780E+01  0.7141780E+01 -0.1027320E+00  0.8618753E-01 -0.2962640E+01  0.8481117E-01  0.1534131E-01
  0.6407370E+01  0.7807410E+01 -0.1027320E+00  0.8992343E-01 -0.2560900E+01  0.7518347E-01  0.4933224E-01
  0.5611260E+01  0.8397840E+01 -0.1027320E+00  0.1079486E+00 -0.2240955E+01  0.6704804E-01  0.8460183E-01
  0.4761110E+01  0.8907410E+01 -0.1027320E+00  0.1346744E+00 -0.2036623E+01  0.6049060E-01  0.1203249E+00
  0.3865100E+01  0.9331180E+01 -0.1027320E+00  0.1655324E+00 -0.1914687E+01  0.5580963E-01  0.1558405E+00
  0.2931870E+01  0.9665100E+01 -0.1027320E+00  0.1982265E+00 -0.1841015E+01  0.5291501E-01  0.1910334E+00
  0.1970410E+01  0.9905930E+01 -0.1027320E+00  0.2316115E+00 -0.1796736E+01  0.5188601E-01  0.2257249E+00
  0.9899730E+00  0.1005140E+02 -0.1027320E+00  0.2646559E+00 -0.1770151E+01  0.5241169E-01  0.2594142E+00
 -0.4414850E-06  0.1010000E+02 -0.1027320E+00  0.2962493E+00 -0.1755478E+01  0.5440121E-01  0.2912116E+00
 -0.9899740E+00  0.1005140E+02 -0.1027320E+00  0.3263431E+00 -0.1748352E+01  0.5764022E-01  0.3212125E+00
 -0.1970410E+01  0.9905930E+01 -0.1027320E+00  0.3546116E+00 -0.1746584E+01  0.6201577E-01  0.3491468E+00
 -0.2931880E+01  0.9665100E+01 -0.1027320E+00  0.3809846E+00 -0.1747726E+01  0.6705653E-01  0.3750370E+00
 -0.3865100E+01  0.9331180E+01 -0.1027320E+00  0.4044674E+00 -0.1750710E+01  0.7237708E-01  0.3979390E+00
 -0.4761110E+01  0.8907400E+01 -0.1027320E+00  0.4253397E+00 -0.1754735E+01  0.7779604E-01  0.4181646E+00
 -0.5611260E+01  0.8397840E+01 -0.1027320E+00  0.4432704E+00 -0.1759371E+01  0.8309510E-01  0.4354123E+00
 -0.6407370E+01  0.7807410E+01 -0.1027320E+00  0.4586668E+00 -0.1763745E+01  0.8795116E-01  0.4501554E+00
 -0.7141780E+01  0.7141780E+01 -0.1027320E+00  0.4705873E+00 -0.1767443E+01  0.9194402E-01  0.4615178E+00
 -0.7807410E+01  0.6407370E+01 -0.1027320E+00  0.4793980E+00 -0.1770363E+01  0.9503803E-01  0.4698832E+00
 -0.8397840E+01  0.5611260E+01 -0.1027320E+00  0.4847319E+00 -0.1772348E+01  0.9703833E-01  0.4749196E+00
 -0.8907410E+01  0.4761110E+01 -0.1027320E+00  0.4873136E+00 -0.1773189E+01  0.9795678E-01  0.4773667E+00
 -0.9331180E+01  0.3865100E+01 -0.1027320E+00  0.4862988E+00 -0.1772829E+01  0.9758133E-01  0.4764079E+00
 -0.9665100E+01  0.2931880E+01 -0.1027320E+00  0.4820766E+00 -0.1771359E+01  0.9603957E-01  0.4724132E+00
 -0.9905930E+01  0.1970410E+01 -0.1027320E+00  0.4742554E+00 -0.1768740E+01  0.9326380E-01  0.4649947E+00
 -0.1005140E+02  0.9899730E+00 -0.1027320E+00  0.4637328E+00 -0.1765178E+01  0.8957472E-01  0.4549994E+00
 -0.1010000E+02 -0.8829700E-06 -0.1027320E+00  0.4498947E+00 -0.1761106E+01  0.8510353E-01  0.4417721E+00
 -0.1005140E+02 -0.9899740E+00 -0.1027320E+00  0.4330897E+00 -0.1756742E+01  0.8006766E-01  0.4256240E+00
 -0.9905930E+01 -0.1970410E+01 -0.1027320E+00  0.4129787E+00 -0.1752360E+01  0.7457059E-01  0.4061904E+00
 -0.9665100E+01 -0.2931880E+01 -0.1027320E+00  0.3905208E+00 -0.1748544E+01  0.6904916E-01  0.3843679E+00
 -0.9331180E+01 -0.3865100E+01 -0.1027320E+00  0.3654837E+00 -0.1746594E+01  0.6392086E-01  0.3598506E+00
 -0.8907400E+01 -0.4761110E+01 -0.1027320E+00  0.3381821E+00 -0.1747286E+01  0.5937621E-01  0.3329288E+00
 -0.8397840E+01 -0.5611260E+01 -0.1027320E+00  0.3084240E+00 -0.1752152E+01  0.5562828E-01  0.3033659E+00
 -0.7807400E+01 -0.6407370E+01 -0.1027320E+00  0.2772154E+00 -0.1763060E+01  0.5297058E-01  0.2721075E+00
 -0.7141780E+01 -0.7141780E+01 -0.1027320E+00  0.2448893E+00 -0.1784130E+01  0.5184776E-01  0.2393378E+00
 -0.6407370E+01 -0.7807410E+01 -0.1027320E+00  0.2118643E+00 -0.1820240E+01  0.5230187E-01  0.2053070E+00
 -0.5611260E+01 -0.8397850E+01 -0.1027320E+00  0.1785398E+00 -0.1881083E+01  0.5451392E-01  0.1700138E+00
 -0.4761110E+01 -0.8907410E+01 -0.1027320E+00  0.1464356E+00 -0.1981143E+01  0.5841717E-01  0.1342789E+00
 -0.3865100E+01 -0.9331190E+01 -0.1027320E+00  0.1177890E+00 -0.2147025E+01  0.6417920E-01  0.9876882E-01
 -0.2931870E+01 -0.9665100E+01 -0.1027320E+00  0.9579964E-01 -0.2415677E+01  0.7164780E-01  0.6359374E-01
 -0.1970410E+01 -0.9905930E+01 -0.1027320E+00  0.8585615E-01 -0.2797814E+01  0.8083252E-01  0.2893757E-01
 -0.9899710E+00 -0.1005140E+02 -0.1027320E+00  0.9143258E-01  0.3090082E+01  0.9131131E-01 -0.4707662E-02
  0.1204410E-06 -0.1010000E+02 -0.1027320E+00  0.1090975E+00  0.2800964E+01  0.1028293E+00 -0.3644726E-01
  0.9899760E+00 -0.1005140E+02 -0.1027320E+00  0.1329018E+00  0.2618575E+01  0.1151349E+00 -0.6638408E-01
  0.1970410E+01 -0.9905930E+01 -0.1027320E+00  0.1589799E+00  0.2507052E+01  0.1280335E+00 -0.9424449E-01
  0.2931880E+01 -0.9665100E+01 -0.1027320E+00  0.1851945E+00  0.2436255E+01  0.1410058E+00 -0.1200599E+00
  0.3865100E+01 -0.9331180E+01 -0.1027320E+00  0.2097029E+00  0.2391957E+01  0.1534893E+00 -0.1428857E+00
  0.4761110E+01 -0.8907410E+01 -0.1027320E+00  0.2321750E+00  0.2363075E+01  0.1652981E+00 -0.1630391E+00
  0.5611260E+01 -0.8397840E+01 -0.1027320E+00  0.2519941E+00  0.2344735E+01  0.1761331E+00 -0.1802169E+00
  0.6407370E+01 -0.7807410E+01 -0.1027320E+00  0.2691976E+00  0.2332000E+01  0.1856907E+00 -0.1949007E+00
  0.7141780E+01 -0.7141780E+01 -0.1027320E+00  0.2827073E+00  0.2324124E+01  0.1933914E+00 -0.2062114E+00
  0.7807410E+01 -0.6407370E+01 -0.1027320E+00  0.2927770E+00  0.2319201E+01  0.1992261E+00 -0.2145398E+00
  0.8397840E+01 -0.5611260E+01 -0.1027320E+00  0.2989708E+00  0.2316881E+01  0.2029322E+00 -0.2195498E+00
  0.8907410E+01 -0.4761110E+01 -0.1027320E+00  0.3018986E+00  0.2315475E+01  0.2046074E+00 -0.2219878E+00
  0.9331180E+01 -0.3865100E+01 -0.1027320E+00  0.3007296E+00  0.2315948E+01  0.2039196E+00 -0.2210319E+00
  0.9665100E+01 -0.2931870E+01 -0.1027320E+00  0.2958656E+00  0.2317934E+01  0.2010529E+00 -0.2170580E+00
  0.9905930E+01 -0.1970410E+01 -0.1027320E+00  0.2869426E+00  0.2322237E+01  0.1958934E+00 -0.2096707E+00
  0.1005140E+02 -0.9899690E+00 -0.1027320E+00  0.2749051E+00  0.2328354E+01  0.1889008E+00 -0.1997231E+00
  0.1010000E+02  0.0000000E+00 -0.2310450E+00  0.2581710E+00  0.2338092E+01  0.1792200E+00 -0.1858292E+00
  0.1005140E+02  0.9899730E+00 -0.2310450E+00  0.2394782E+00  0.2354242E+01  0.1690057E+00 -0.1696669E+00
  0.9905930E+01  0.1970410E+01 -0.2310450E+00  0.2177178E+00  0.2379171E+01  0.1574460E+00 -0.1503723E+00
  0.9665100E+01  0.2931880E+01 -0.2310450E+00  0.1940074E+00  0.2415878E+01  0.1451225E+00 -0.1287569E+00
  0.9331180E+01  0.3865100E+01 -0.2310450E+00  0.1687687E+00  0.2473331E+01  0.1324666E+00 -0.1045729E+00
  0.8907400E+01  0.4761110E+01 -0.2310450E+00  0.1427463E+00  0.2565637E+01  0.1197174E+00 -0.7774491E-01
  0.8397840E+01  0.5611260E+01 -0.2310450E+00  0.1175368E+00  0.2717429E+01  0.1071211E+00 -0.4837322E-01
  0.7807410E+01  0.6407370E+01 -0.2310450E+00  0.9671053E-01  0.2961287E+01  0.9514275E-01 -0.1734307E-01
  0.7141780E+01  0.7141780E+01 -0.2310450E+00  0.8563551E-01 -0.2963897E+01  0.8428705E-01  0.1513715E-01
  0.6407370E+01  0.7807410E+01 -0.2310450E+00  0.8937036E-01 -0.2561199E+01  0.7473569E-01  0.4900651E-01
  0.5611260E+01  0.8397840E+01 -0.2310450E+00  0.1073148E+00 -0.2240846E+01  0.6664515E-01  0.8411240E-01
  0.4761110E+01  0.8907410E+01 -0.2310450E+00  0.1339125E+00 -0.2036343E+01  0.6011487E-01  0.1196611E+00
  0.3865100E+01  0.9331180E+01 -0.2310450E+00  0.1646096E+00 -0.1914198E+01  0.5542282E-01  0.1549988E+00
  0.2931870E+01  0.9665100E+01 -0.2310450E+00  0.1971278E+00 -0.1840804E+01  0.5258170E-01  0.1899856E+00
  0.1970410E+01  0.9905930E+01 -0.2310450E+00  0.2303492E+00 -0.1796578E+01  0.5156790E-01  0.2245028E+00
  0.9899730E+00  0.1005140E+02 -0.2310450E+00  0.2632459E+00 -0.1769991E+01  0.5209119E-01  0.2580405E+00
 -0.4414850E-06  0.1010000E+02 -0.2310450E+00  0.2947520E+00 -0.1755205E+01  0.5404721E-01  0.2897545E+00
 -0.9899740E+00  0.1005140E+02 -0.2310450E+00  0.3245996E+00 -0.1748233E+01  0.5729398E-01  0.3195032E+00
 -0.1970410E+01  0.9905930E+01 -0.2310450E+00  0.3527152E+00 -0.1746509E+01  0.6165818E-01  0.3472842E+00
 -0.2931880E+01  0.9665100E+01 -0.2310450E+00  0.3789812E+00 -0.1747663E+01  0.6668021E-01  0.3730690E+00
 -0.3865100E+01  0.9331180E+01 -0.2310450E+00  0.4024802E+00 -0.1750598E+01  0.7197732E-01  0.3959919E+00
 -0.4761110E+01  0.8907400E+01 -0.2310450E+00  0.4230966E+00 -0.1754683E+01  0.7736427E-01  0.4159633E+00
 -0.5611260E+01  0.8397840E+01 -0.2310450E+00  0.4409152E+00 -0.1759344E+01  0.8264171E-01  0.4331011E+00
 -0.6407370E+01  0.7807410E+01 -0.2310450E+00  0.4562655E+00 -0.1763727E+01  0.8748274E-01  0.4478002E+00
 -0.7141780E+01  0.7141780E+01 -0.2310450E+00  0.4682984E+00 -0.1767415E+01  0.9148408E-01  0.4592756E+00
 -0.7807410E+01  0.6407370E+01 -0.2310450E+00  0.4768845E+00 -0.1770348E+01  0.9453288E-01  0.4674210E+00
 -0.8397840E+01  0.5611260E+01 -0.2310450E+00  0.4821622E+00 -0.1772341E+01  0.9652042E-01  0.4724025E+00
 -0.8907410E+01  0.4761110E+01 -0.2310450E+00  0.4847629E+00 -0.1773182E+01  0.9744085E-01  0.4748688E+00
 -0.9331180E+01  0.3865100E+01 -0.2310450E+00  0.4839382E+00 -0.1772820E+01  0.9710326E-01  0.4740961E+00
 -0.9665100E+01  0.2931880E+01 -0.2310450E+00  0.4795535E+00 -0.1771352E+01  0.9553362E-01  0.4699414E+00
 -0.9905930E+01  0.1970410E+01 -0.2310450E+00  0.4717402E+00 -0.1768727E+01  0.9276339E-01  0.4625297E+00
 -0.1005140E+02  0.9899730E+00 -0.2310450E+00  0.4612970E+00 -0.1765152E+01  0.8909249E-01  0.4526118E+00
 -0.1010000E+02 -0.8829700E-06 -0.2310450E+00  0.4477007E+00 -0.1761053E+01  0.8466509E-01  0.4396223E+00
 -0.1005140E+02 -0.9899740E+00 -0.2310450E+00  0.4308196E+00 -0.1756710E+01  0.7963476E-01  0.4233956E+00
 -0.9905930E+01 -0.1970410E+01 -0.2310450E+00  0.4107804E+00 -0.1752317E+01  0.7415630E-01  0.4040314E+00
 -0.9665100E+01 -0.2931880E+01 -0.2310450E+00  0.3884534E+00 -0.1748469E+01  0.6865501E-01  0.3823383E+00
 -0.9331180E+01 -0.3865100E+01 -0.2310450E+00  0.3636733E+00 -0.1746429E+01  0.6354508E-01  0.3580786E+00
 -0.8907400E+01 -0.4761110E+01 -0.2310450E+00  0.3363987E+00 -0.1747190E+01  0.5903149E-01  0.3311788E+00
 -0.8397840E+01 -0.5611260E+01 -0.2310450E+00  0.3067656E+00 -0.1752048E+01  0.5529799E-01  0.3017404E+00
 -0.7807400E+01 -0.6407370E+01 -0.2310450E+00  0.2757196E+00 -0.1762903E+01  0.5264251E-01  0.2706475E+00
 -0.7141780E+01 -0.7141780E+01 -0.2310450E+00  0.2436206E+00 -0.1783767E+01  0.5149276E-01  0.2381165E+00
 -0.6407370E+01 -0.7807410E+01 -0.2310450E+00  0.2107205E+00 -0.1820024E+01  0.5197537E-01  0.2042099E+00
 -0.5611260E+01 -0.8397850E+01 -0.2310450E+00  0.1775495E+00 -0.1880889E+01  0.5417874E-01  0.1690813E+00
 -0.4761110E+01 -0.8907410E+01 -0.2310450E+00  0.1455947E+00 -0.1980937E+01  0.5805415E-01  0.1335198E+00
 -0.3865100E+01 -0.9331190E+01 -0.2310450E+00  0.1170663E+00 -0.2146661E+01  0.6374962E-01  0.9818604E-01
 -0.2931870E+01 -0.9665100E+01 -0.2310450E+00  0.9522495E-01 -0.2415590E+01  0.7121244E-01  0.6321850E-01
 -0.1970410E+01 -0.9905930E+01 -0.2310450E+00  0.8534177E-01 -0.2798150E+01  0.8035790E-01  0.2873720E-01
 -0.9899710E+00 -0.1005140E+02 -0.2310450E+00  0.9090808E-01  0.3089240E+01  0.9078353E-01 -0.4757133E-02
  0.1204410E-06 -0.1010000E+02 -0.2310450E+00  0.1085192E+00  0.2799387E+01  0.1022269E+00 -0.3641526E-01
  0.9899760E+00 -0.1005140E+02 -0.2310450E+00  0.1321910E+00  0.2617965E+01  0.1144789E+00 -0.6609880E-01
  0.1970410E+01 -0.9905930E+01 -0.2310450E+00  0.1581440E+00  0.2506608E+01  0.1273187E+00 -0.9380547E-01
  0.2931880E+01 -0.9665100E+01 -0.2310450E+00  0.1842548E+00  0.2435781E+01  0.1402336E+00 -0.1195173E+00
  0.3865100E+01 -0.9331180E+01 -0.2310450E+00  0.2087513E+00  0.2391118E+01  0.1526734E+00 -0.1423655E+00
  0.4761110E+01 -0.8907410E+01 -0.2310450E+00  0.2309881E+00  0.2362723E+01  0.1643960E+00 -0.1622635E+00
  0.5611260E+01 -0.8397840E+01 -0.2310450E+00  0.2506920E+00  0.2344477E+01  0.1751768E+00 -0.1793309E+00
  0.6407370E+01 -0.7807410E+01 -0.2310450E+00  0.2678399E+00  0.2331711E+01  0.1846982E+00 -0.1939712E+00
  0.7141780E+01 -0.7141780E+01 -0.2310450E+00  0.2814430E+00  0.2323562E+01  0.1924112E+00 -0.2053974E+00
  0.7807410E+01 -0.6407370E+01 -0.2310450E+00  0.2912933E+00  0.2318943E+01  0.1981614E+00 -0.2135038E+00
  0.8397840E+01 -0.5611260E+01 -0.2310450E+00  0.2974294E+00  0.2316679E+01  0.2018417E+00 -0.2184587E+00
  0.8907410E+01 -0.4761110E+01 -0.2310450E+00  0.3003726E+00  0.2315229E+01  0.2035190E+00 -0.2209157E+00
  0.9331180E+01 -0.3865100E+01 -0.2310450E+00  0.2993866E+00  0.2315436E+01  0.2028963E+00 -0.2201486E+00
  0.9665100E+01 -0.2931870E+01 -0.2310450E+00  0.2943719E+00  0.2317682E+01  0.1999836E+00 -0.2160124E+00
  0.9905930E+01 -0.1970410E+01 -0.2310450E+00  0.2854625E+00  0.2322022E+01  0.1948381E+00 -0.2086311E+00
  0.1005140E+02 -0.9899690E+00 -0.2310450E+00  0.2735087E+00  0.2328071E+01  0.1878850E+00 -0.1987618E+00
  0.1010000E+02  0.0000000E+00 -0.4105000E+00  0.2563458E+00  0.2337652E+01  0.1778719E+00 -0.1845935E+00
  0.1005140E+02  0.9899730E+00 -0.4105000E+00  0.2376972E+00  0.2354015E+01  0.1677106E+00 -0.1684432E+00
  0.9905930E+01  0.1970410E+01 -0.4105000E+00  0.2161235E+00  0.2378811E+01  0.1562393E+00 -0.1493273E+00
  0.9665100E+01  0.2931880E+01 -0.4105000E+00  0.1925458E+00  0.2415607E+01  0.1439944E+00 -0.1278259E+00
  0.9331180E+01  0.3865100E+01 -0.4105000E+00  0.1675600E+00  0.2472630E+01  0.1314450E+00 -0.1039161E+00
  0.8907400E+01  0.4761110E+01 -0.4105000E+00  0.1416796E+00  0.2565232E+01  0.1187914E+00 -0.7721197E-01
  0.8397840E+01  0.5611260E+01 -0.4105000E+00  0.1166488E+00  0.2716781E+01  0.1062806E+00 -0.4807672E-01
  0.7807410E+01  0.6407370E+01 -0.4105000E+00  0.9595204E-01  0.2960918E+01  0.9439021E-01 -0.1724191E-01
  0.7141780E+01  0.7141780E+01 -0.4105000E+00  0.8493058E-01 -0.2964737E+01  0.8360581E-01  0.1494229E-01
  0.6407370E+01  0.7807410E+01 -0.4105000E+00  0.8864691E-01 -0.2561489E+01  0.7414481E-01  0.4858829E-01
  0.5611260E+01  0.8397840E+01 -0.4105000E+00  0.1064482E+00 -0.2240792E+01  0.6610248E-01  0.8343670E-01
  0.4761110E+01  0.8907410E+01 -0.4105000E+00  0.1328706E+00 -0.2036205E+01  0.5963067E-01  0.1187382E+00
  0.3865100E+01  0.9331180E+01 -0.4105000E+00  0.1633308E+00 -0.1913937E+01  0.5495211E-01  0.1538090E+00
  0.2931870E+01  0.9665100E+01 -0.4105000E+00  0.1955939E+00 -0.1840715E+01  0.5215577E-01  0.1885119E+00
  0.1970410E+01  0.9905930E+01 -0.4105000E+00  0.2285914E+00 -0.1796434E+01  0.5114236E-01  0.2227970E+00
  0.9899730E+00  0.1005140E+02 -0.4105000E+00  0.2612426E+00 -0.1769916E+01  0.5167551E-01  0.2560807E+00
 -0.4414850E-06  0.1010000E+02 -0.4105000E+00  0.2925572E+00 -0.1755047E+01  0.5359937E-01  0.2876054E+00
 -0.9899740E+00  0.1005140E+02 -0.4105000E+00  0.3221164E+00 -0.1748166E+01  0.5683469E-01  0.3170628E+00
 -0.1970410E+01  0.9905930E+01 -0.4105000E+00  0.3500624E+00 -0.1746435E+01  0.6116871E-01  0.3446768E+00
 -0.2931880E+01  0.9665100E+01 -0.4105000E+00  0.3761106E+00 -0.1747629E+01  0.6616257E-01  0.3702454E+00
 -0.3865100E+01  0.9331180E+01 -0.4105000E+00  0.3995219E+00 -0.1750523E+01  0.7141893E-01  0.3930866E+00
 -0.4761110E+01  0.8907400E+01 -0.4105000E+00  0.4198819E+00 -0.1754643E+01  0.7675971E-01  0.4128059E+00
 -0.5611260E+01  0.8397840E+01 -0.4105000E+00  0.4376173E+00 -0.1759309E+01  0.8200872E-01  0.4298645E+00
 -0.6407370E+01  0.7807410E+01 -0.4105000E+00  0.4528139E+00 -0.1763709E+01  0.8681291E-01  0.4444141E+00
 -0.7141780E+01  0.7141780E+01 -0.4105000E+00  0.4648736E+00 -0.1767383E+01  0.9080026E-01  0.4559197E+00