 VARIABLES="X" "Y" "Z" "abs(eta) (m)" "angle(phi) (rad)" "PRE1" "PRE2"
ZONE N=   3200 ,E =    3136 ,F=FEPOINT,ET=QUADRILATERAL
  0.1010000E+02  0.0000000E+00  0.0000000E+00  0.6831060E+00 -0.1656786E+01  0.5866767E-01  0.6805820E+00
  0.1005140E+02  0.9899730E+00  0.0000000E+00  0.6813922E+00 -0.1655709E+01  0.5778924E-01  0.6789372E+00
  0.9905930E+01  0.1970410E+01  0.0000000E+00  0.6754237E+00 -0.1652072E+01  0.5483501E-01  0.6731941E+00
  0.9665100E+01  0.2931880E+01  0.0000000E+00  0.6654577E+00 -0.1646273E+01  0.5017876E-01  0.6635632E+00
  0.9331180E+01  0.3865100E+01  0.0000000E+00  0.6513819E+00 -0.1638664E+01  0.4417412E-01  0.6498823E+00
  0.8907400E+01  0.4761110E+01  0.0000000E+00  0.6338523E+00 -0.1629520E+01  0.3720051E-01  0.6327597E+00
  0.8397840E+01  0.5611260E+01  0.0000000E+00  0.6119013E+00 -0.1618503E+01  0.2918093E-01  0.6112051E+00
  0.7807410E+01  0.6407370E+01  0.0000000E+00  0.5860175E+00 -0.1606663E+01  0.2101375E-01  0.5856407E+00
  0.7141780E+01  0.7141780E+01  0.0000000E+00  0.5563664E+00 -0.1595308E+01  0.1363603E-01  0.5561993E+00
  0.6407370E+01  0.7807410E+01  0.0000000E+00  0.5234019E+00 -0.1584714E+01  0.7284421E-02  0.5233512E+00
  0.5611260E+01  0.8397840E+01  0.0000000E+00  0.4862251E+00 -0.1575374E+01  0.2225596E-02  0.4862200E+00
  0.4761110E+01  0.8907410E+01  0.0000000E+00  0.4457116E+00 -0.1569310E+01 -0.6624040E-03  0.4457110E+00
  0.3865100E+01  0.9331180E+01  0.0000000E+00  0.4026300E+00 -0.1569810E+01 -0.3970443E-03  0.4026298E+00
  0.2931870E+01  0.9665100E+01  0.0000000E+00  0.3573087E+00 -0.1579036E+01  0.2944215E-02  0.3572966E+00
  0.1970410E+01  0.9905930E+01  0.0000000E+00  0.3093945E+00 -0.1602491E+01  0.9804586E-02  0.3092391E+00
  0.9899730E+00  0.1005140E+02  0.0000000E+00  0.2606764E+00 -0.1649069E+01  0.2038313E-01  0.2598782E+00
 -0.4414850E-06  0.1010000E+02  0.0000000E+00  0.2134649E+00 -0.1735350E+01  0.3496810E-01  0.2105813E+00
 -0.9899740E+00  0.1005140E+02  0.0000000E+00  0.1698714E+00 -0.1889123E+01  0.5316593E-01  0.1613372E+00
 -0.1970410E+01  0.9905930E+01  0.0000000E+00  0.1350798E+00 -0.2161606E+01  0.7524396E-01  0.1121825E+00
 -0.2931880E+01  0.9665100E+01  0.0000000E+00  0.1193309E+00 -0.2570750E+01  0.1004105E+00  0.6447934E-01
 -0.3865100E+01  0.9331180E+01  0.0000000E+00  0.1294355E+00 -0.2989364E+01  0.1279387E+00  0.1962772E-01
 -0.4761110E+01  0.8907400E+01  0.0000000E+00  0.1590357E+00  0.2997041E+01  0.1573770E+00 -0.2290885E-01
 -0.5611260E+01  0.8397840E+01  0.0000000E+00  0.1987554E+00  0.2820252E+01  0.1885816E+00 -0.6277474E-01
 -0.6407370E+01  0.7807410E+01  0.0000000E+00  0.2414697E+00  0.2718273E+01  0.2201553E+00 -0.9919318E-01
 -0.7141780E+01  0.7141780E+01  0.0000000E+00  0.2830584E+00  0.2659241E+01  0.2507632E+00 -0.1313006E+00
 -0.7807410E+01  0.6407370E+01  0.0000000E+00  0.3227167E+00  0.2622731E+01  0.2802421E+00 -0.1600324E+00
 -0.8397840E+01  0.5611260E+01  0.0000000E+00  0.3592989E+00  0.2601041E+01  0.3080718E+00 -0.1848985E+00
 -0.8907410E+01  0.4761110E+01  0.0000000E+00  0.3915143E+00  0.2588126E+01  0.3330640E+00 -0.2057954E+00
 -0.9331180E+01  0.3865100E+01  0.0000000E+00  0.4180217E+00  0.2580763E+01  0.3539867E+00 -0.2223411E+00
 -0.9665100E+01  0.2931880E+01  0.0000000E+00  0.4395807E+00  0.2576012E+01  0.3711282E+00 -0.2355739E+00
 -0.9905930E+01  0.1970410E+01  0.0000000E+00  0.4552618E+00  0.2573705E+01  0.3838035E+00 -0.2448636E+00
 -0.1005140E+02  0.9899730E+00  0.0000000E+00  0.4648063E+00  0.2572712E+01  0.3916013E+00 -0.2503863E+00
 -0.1010000E+02 -0.8829700E-06  0.0000000E+00  0.4676702E+00  0.2572668E+01  0.3940031E+00 -0.2519464E+00
 -0.1005140E+02 -0.9899740E+00  0.0000000E+00  0.4648064E+00  0.2572712E+01  0.3916014E+00 -0.2503863E+00
 -0.9905930E+01 -0.1970410E+01  0.0000000E+00  0.4552617E+00  0.2573705E+01  0.3838035E+00 -0.2448635E+00
 -0.9665100E+01 -0.2931880E+01  0.0000000E+00  0.4395807E+00  0.2576013E+01  0.3711284E+00 -0.2355737E+00
 -0.9331180E+01 -0.3865100E+01  0.0000000E+00  0.4180219E+00  0.2580763E+01  0.3539869E+00 -0.2223411E+00
 -0.8907400E+01 -0.4761110E+01  0.0000000E+00  0.3915143E+00  0.2588124E+01  0.3330637E+00 -0.2057960E+00
 -0.8397840E+01 -0.5611260E+01  0.0000000E+00  0.3592987E+00  0.2601040E+01  0.3080714E+00 -0.1848987E+00
 -0.7807400E+01 -0.6407370E+01  0.0000000E+00  0.3227170E+00  0.2622731E+01  0.2802424E+00 -0.1600327E+00
 -0.7141780E+01 -0.7141780E+01  0.0000000E+00  0.2830587E+00  0.2659241E+01  0.2507636E+00 -0.1313007E+00
 -0.6407370E+01 -0.7807410E+01  0.0000000E+00  0.2414702E+00  0.2718273E+01  0.2201557E+00 -0.9919333E-01
 -0.5611260E+01 -0.8397850E+01  0.0000000E+00  0.1987549E+00  0.2820252E+01  0.1885812E+00 -0.6277443E-01
 -0.4761110E+01 -0.8907410E+01  0.0000000E+00  0.1590360E+00  0.2997043E+01  0.1573774E+00 -0.2290858E-01
 -0.3865100E+01 -0.9331190E+01  0.0000000E+00  0.1294359E+00 -0.2989363E+01  0.1279390E+00  0.1962793E-01
 -0.2931870E+01 -0.9665100E+01  0.0000000E+00  0.1193310E+00 -0.2570749E+01  0.1004105E+00  0.6447958E-01
 -0.1970410E+01 -0.9905930E+01  0.0000000E+00  0.1350797E+00 -0.2161608E+01  0.7524423E-01  0.1121822E+00
 -0.9899710E+00 -0.1005140E+02  0.0000000E+00  0.1698714E+00 -0.1889124E+01  0.5316617E-01  0.1613370E+00
  0.1204410E-06 -0.1010000E+02  0.0000000E+00  0.2134650E+00 -0.1735351E+01  0.3496838E-01  0.2105814E+00
  0.9899760E+00 -0.1005140E+02  0.0000000E+00  0.2606767E+00 -0.1649070E+01  0.2038318E-01  0.2598786E+00
  0.1970410E+01 -0.9905930E+01  0.0000000E+00  0.3093944E+00 -0.1602491E+01  0.9804646E-02  0.3092390E+00
  0.2931880E+01 -0.9665100E+01  0.0000000E+00  0.3573093E+00 -0.1579036E+01  0.2944251E-02  0.3572972E+00
  0.3865100E+01 -0.9331180E+01  0.0000000E+00  0.4026296E+00 -0.1569811E+01 -0.3966901E-03  0.4026293E+00
  0.4761110E+01 -0.8907410E+01  0.0000000E+00  0.4457110E+00 -0.1569310E+01 -0.6624575E-03  0.4457105E+00
  0.5611260E+01 -0.8397840E+01  0.0000000E+00  0.4862247E+00 -0.1575374E+01  0.2225691E-02  0.4862196E+00
  0.6407370E+01 -0.7807410E+01  0.0000000E+00  0.5234021E+00 -0.1584714E+01  0.7284484E-02  0.5233514E+00
  0.7141780E+01 -0.7141780E+01  0.0000000E+00  0.5563663E+00 -0.1595308E+01  0.1363587E-01  0.5561992E+00
  0.7807410E+01 -0.6407370E+01  0.0000000E+00  0.5860174E+00 -0.1606663E+01  0.2101371E-01  0.5856405E+00
  0.8397840E+01 -0.5611260E+01  0.0000000E+00  0.6119013E+00 -0.1618503E+01  0.2918092E-01  0.6112051E+00
  0.8907410E+01 -0.4761110E+01  0.0000000E+00  0.6338521E+00 -0.1629519E+01  0.3720029E-01  0.6327596E+00
  0.9331180E+01 -0.3865100E+01  0.0000000E+00  0.6513814E+00 -0.1638664E+01  0.4417400E-01  0.6498818E+00
  0.9665100E+01 -0.2931870E+01  0.0000000E+00  0.6654575E+00 -0.1646273E+01  0.5017883E-01  0.6635629E+00
  0.9905930E+01 -0.1970410E+01  0.0000000E+00  0.6754230E+00 -0.1652072E+01  0.5483497E-01  0.6731934E+00
  0.1005140E+02 -0.9899690E+00  0.0000000E+00  0.6813922E+00 -0.1655709E+01  0.5778905E-01  0.6789372E+00
  0.1010000E+02  0.0000000E+00 -0.2568960E-01  0.6820528E+00 -0.1656824E+01  0.5860342E-01  0.6795304E+00
  0.1005140E+02  0.9899730E+00 -0.2568960E-01  0.6803595E+00 -0.1655754E+01  0.5773229E-01  0.6779056E+00
  0.9905930E+01  0.1970410E+01 -0.2568960E-01  0.6743153E+00 -0.1652092E+01  0.5475840E-01  0.6720883E+00
  0.9665100E+01  0.2931880E+01 -0.2568960E-01  0.6644478E+00 -0.1646315E+01  0.5013088E-01  0.6625540E+00
  0.9331180E+01  0.3865100E+01 -0.2568960E-01  0.6503762E+00 -0.1638699E+01  0.4412845E-01  0.6488774E+00
  0.8907400E+01  0.4761110E+01 -0.2568960E-01  0.6328884E+00 -0.1629556E+01  0.3716666E-01  0.6317962E+00
  0.8397840E+01  0.5611260E+01 -0.2568960E-01  0.6108979E+00 -0.1618527E+01  0.2914735E-01  0.6102021E+00
  0.7807410E+01  0.6407370E+01 -0.2568960E-01  0.5851259E+00 -0.1606690E+01  0.2099801E-01  0.5847490E+00
  0.7141780E+01  0.7141780E+01 -0.2568960E-01  0.5555044E+00 -0.1595330E+01  0.1362734E-01  0.5553372E+00
  0.6407370E+01  0.7807410E+01 -0.2568960E-01  0.5226009E+00 -0.1584729E+01  0.7280895E-02  0.5225502E+00
  0.5611260E+01  0.8397840E+01 -0.2568960E-01  0.4854265E+00 -0.1575407E+01  0.2237972E-02  0.4854214E+00
  0.4761110E+01  0.8907410E+01 -0.2568960E-01  0.4450253E+00 -0.1569311E+01 -0.6611093E-03  0.4450248E+00
  0.3865100E+01  0.9331180E+01 -0.2568960E-01  0.4019968E+00 -0.1569815E+01 -0.3946797E-03  0.4019966E+00
  0.2931870E+01  0.9665100E+01 -0.2568960E-01  0.3567495E+00 -0.1579018E+01  0.2933192E-02  0.3567374E+00
  0.1970410E+01  0.9905930E+01 -0.2568960E-01  0.3088862E+00 -0.1602548E+01  0.9805965E-02  0.3087305E+00
  0.9899730E+00  0.1005140E+02 -0.2568960E-01  0.2602557E+00 -0.1649037E+01  0.2034191E-01  0.2594595E+00
 -0.4414850E-06  0.1010000E+02 -0.2568960E-01  0.2131112E+00 -0.1735352E+01  0.3491051E-01  0.2102323E+00
 -0.9899740E+00  0.1005140E+02 -0.2568960E-01  0.1695768E+00 -0.1889127E+01  0.5307440E-01  0.1610572E+00
 -0.1970410E+01  0.9905930E+01 -0.2568960E-01  0.1348667E+00 -0.2161726E+01  0.7513873E-01  0.1119964E+00
 -0.2931880E+01  0.9665100E+01 -0.2568960E-01  0.1191194E+00 -0.2571003E+01  0.1002488E+00  0.6433982E-01
 -0.3865100E+01  0.9331180E+01 -0.2568960E-01  0.1292295E+00 -0.2989643E+01  0.1277405E+00  0.1956091E-01
 -0.4761110E+01  0.8907400E+01 -0.2568960E-01  0.1587978E+00  0.2996730E+01  0.1571345E+00 -0.2292353E-01
 -0.5611260E+01  0.8397840E+01 -0.2568960E-01  0.1984467E+00  0.2820269E+01  0.1882899E+00 -0.6267405E-01
 -0.6407370E+01  0.7807410E+01 -0.2568960E-01  0.2411266E+00  0.2718075E+01  0.2198228E+00 -0.9909580E-01
 -0.7141780E+01  0.7141780E+01 -0.2568960E-01  0.2826495E+00  0.2659117E+01  0.2503847E+00 -0.1311420E+00
 -0.7807410E+01  0.6407370E+01 -0.2568960E-01  0.3222629E+00  0.2622594E+01  0.2798261E+00 -0.1598459E+00
 -0.8397840E+01  0.5611260E+01 -0.2568960E-01  0.3587261E+00  0.2601062E+01  0.3075846E+00 -0.1845972E+00
 -0.8907410E+01  0.4761110E+01 -0.2568960E-01  0.3909624E+00  0.2588020E+01  0.3325728E+00 -0.2055405E+00
 -0.9331180E+01  0.3865100E+01 -0.2568960E-01  0.4174156E+00  0.2580691E+01  0.3534574E+00 -0.2220443E+00
 -0.9665100E+01  0.2931880E+01 -0.2568960E-01  0.4389610E+00  0.2575926E+01  0.3705846E+00 -0.2352738E+00
 -0.9905930E+01  0.1970410E+01 -0.2568960E-01  0.4545299E+00  0.2573723E+01  0.3831907E+00 -0.2444633E+00
 -0.1005140E+02  0.9899730E+00 -0.2568960E-01  0.4641505E+00  0.2572633E+01  0.3910292E+00 -0.2500637E+00
 -0.1010000E+02 -0.8829700E-06 -0.2568960E-01  0.4669904E+00  0.2572607E+01  0.3934151E+00 -0.2516040E+00
 -0.1005140E+02 -0.9899740E+00 -0.2568960E-01  0.4641504E+00  0.2572634E+01  0.3910293E+00 -0.2500634E+00
 -0.9905930E+01 -0.1970410E+01 -0.2568960E-01  0.4545299E+00  0.2573722E+01  0.3831907E+00 -0.2444634E+00
 -0.9665100E+01 -0.2931880E+01 -0.2568960E-01  0.4389603E+00  0.2575925E+01  0.3705839E+00 -0.2352739E+00
 -0.9331180E+01 -0.3865100E+01 -0.2568960E-01  0.4174156E+00  0.2580690E+01  0.3534574E+00 -0.2220444E+00
 -0.8907400E+01 -0.4761110E+01 -0.2568960E-01  0.3909628E+00  0.2588020E+01  0.3325731E+00 -0.2055407E+00
 -0.8397840E+01 -0.5611260E+01 -0.2568960E-01  0.3587267E+00  0.2601061E+01  0.3075850E+00 -0.1845977E+00
 -0.7807400E+01 -0.6407370E+01 -0.2568960E-01  0.3222635E+00  0.2622594E+01  0.2798266E+00 -0.1598463E+00
 -0.7141780E+01 -0.7141780E+01 -0.2568960E-01  0.2826496E+00  0.2659117E+01  0.2503848E+00 -0.1311420E+00
 -0.6407370E+01 -0.7807410E+01 -0.2568960E-01  0.2411268E+00  0.2718074E+01  0.2198229E+00 -0.9909599E-01
 -0.5611260E+01 -0.8397850E+01 -0.2568960E-01  0.1984470E+00  0.2820271E+01  0.1882902E+00 -0.6267367E-01
 -0.4761110E+01 -0.8907410E+01 -0.2568960E-01  0.1587975E+00  0.2996730E+01  0.1571343E+00 -0.2292340E-01
 -0.3865100E+01 -0.9331190E+01 -0.2568960E-01  0.1292298E+00 -0.2989642E+01  0.1277408E+00  0.1956111E-01
 -0.2931870E+01 -0.9665100E+01 -0.2568960E-01  0.1191197E+00 -0.2571002E+01  0.1002489E+00  0.6434003E-01
 -0.1970410E+01 -0.9905930E+01 -0.2568960E-01  0.1348666E+00 -0.2161727E+01  0.7513879E-01  0.1119963E+00
 -0.9899710E+00 -0.1005140E+02 -0.2568960E-01  0.1695768E+00 -0.1889128E+01  0.5307452E-01  0.1610571E+00
  0.1204410E-06 -0.1010000E+02 -0.2568960E-01  0.2131114E+00 -0.1735352E+01  0.3491054E-01  0.2102325E+00
  0.9899760E+00 -0.1005140E+02 -0.2568960E-01  0.2602556E+00 -0.1649037E+01  0.2034182E-01  0.2594594E+00
  0.1970410E+01 -0.9905930E+01 -0.2568960E-01  0.3088863E+00 -0.1602549E+01  0.9806249E-02  0.3087306E+00
  0.2931880E+01 -0.9665100E+01 -0.2568960E-01  0.3567492E+00 -0.1579018E+01  0.2933206E-02  0.3567371E+00
  0.3865100E+01 -0.9331180E+01 -0.2568960E-01  0.4019965E+00 -0.1569815E+01 -0.3945162E-03  0.4019963E+00
  0.4761110E+01 -0.8907410E+01 -0.2568960E-01  0.4450243E+00 -0.1569311E+01 -0.6610820E-03  0.4450238E+00
  0.5611260E+01 -0.8397840E+01 -0.2568960E-01  0.4854259E+00 -0.1575407E+01  0.2237905E-02  0.4854208E+00
  0.6407370E+01 -0.7807410E+01 -0.2568960E-01  0.5226012E+00 -0.1584729E+01  0.7280971E-02  0.5225505E+00
  0.7141780E+01 -0.7141780E+01 -0.2568960E-01  0.5555042E+00 -0.1595330E+01  0.1362746E-01  0.5553370E+00
  0.7807410E+01 -0.6407370E+01 -0.2568960E-01  0.5851257E+00 -0.1606691E+01  0.2099808E-01  0.5847488E+00
  0.8397840E+01 -0.5611260E+01 -0.2568960E-01  0.6108975E+00 -0.1618527E+01  0.2914749E-01  0.6102018E+00
  0.8907410E+01 -0.4761110E+01 -0.2568960E-01  0.6328887E+00 -0.1629555E+01  0.3716645E-01  0.6317964E+00
  0.9331180E+01 -0.3865100E+01 -0.2568960E-01  0.6503763E+00 -0.1638699E+01  0.4412846E-01  0.6488775E+00
  0.9665100E+01 -0.2931870E+01 -0.2568960E-01  0.6644486E+00 -0.1646316E+01  0.5013098E-01  0.6625547E+00
  0.9905930E+01 -0.1970410E+01 -0.2568960E-01  0.6743154E+00 -0.1652092E+01  0.5475836E-01  0.6720884E+00
  0.1005140E+02 -0.9899690E+00 -0.2568960E-01  0.6803588E+00 -0.1655754E+01  0.5773215E-01  0.6779049E+00
  0.1010000E+02  0.0000000E+00 -0.1027320E+00  0.6789659E+00 -0.1656940E+01  0.5841660E-01  0.6764482E+00
  0.1005140E+02  0.9899730E+00 -0.1027320E+00  0.6772026E+00 -0.1655845E+01  0.5752568E-01  0.6747549E+00
  0.9905930E+01  0.1970410E+01 -0.1027320E+00  0.6711293E+00 -0.1652168E+01  0.5455072E-01  0.6689087E+00
  0.9665100E+01  0.2931880E+01 -0.1027320E+00  0.6613659E+00 -0.1646402E+01  0.4995550E-01  0.6594765E+00
  0.9331180E+01  0.3865100E+01 -0.1027320E+00  0.6474295E+00 -0.1638794E+01  0.4398977E-01  0.6459333E+00
  0.8907400E+01  0.4761110E+01 -0.1027320E+00  0.6299477E+00 -0.1629622E+01  0.3703600E-01  0.6288581E+00
  0.8397840E+01  0.5611260E+01 -0.1027320E+00  0.6080078E+00 -0.1618584E+01  0.2904427E-01  0.6073138E+00
  0.7807410E+01  0.6407370E+01 -0.1027320E+00  0.5824053E+00 -0.1606745E+01  0.2093218E-01  0.5820290E+00
  0.7141780E+01  0.7141780E+01 -0.1027320E+00  0.5529738E+00 -0.1595363E+01  0.1358323E-01  0.5528070E+00
  0.6407370E+01  0.7807410E+01 -0.1027320E+00  0.5201577E+00 -0.1584746E+01  0.7255793E-02  0.5201071E+00
  0.5611260E+01  0.8397840E+01 -0.1027320E+00  0.4831195E+00 -0.1575427E+01  0.2237154E-02  0.4831143E+00
  0.4761110E+01  0.8907410E+01 -0.1027320E+00  0.4429381E+00 -0.1569304E+01 -0.6608255E-03  0.4429376E+00
  0.3865100E+01  0.9331180E+01 -0.1027320E+00  0.4001324E+00 -0.1569740E+01 -0.4226500E-03  0.4001321E+00
  0.2931870E+01  0.9665100E+01 -0.1027320E+00  0.3550501E+00 -0.1578964E+01  0.2899902E-02  0.3550382E+00
  0.1970410E+01  0.9905930E+01 -0.1027320E+00  0.3073956E+00 -0.1602522E+01  0.9750615E-02  0.3072410E+00
  0.9899730E+00  0.1005140E+02 -0.1027320E+00  0.2589970E+00 -0.1648949E+01  0.2022078E-01  0.2582064E+00
 -0.4414850E-06  0.1010000E+02 -0.1027320E+00  0.2120507E+00 -0.1735170E+01  0.3469878E-01  0.2091925E+00
 -0.9899740E+00  0.1005140E+02 -0.1027320E+00  0.1687099E+00 -0.1889115E+01  0.5280112E-01  0.1602345E+00
 -0.1970410E+01  0.9905930E+01 -0.1027320E+00  0.1341785E+00 -0.2161884E+01  0.7477290E-01  0.1114132E+00
 -0.2931880E+01  0.9665100E+01 -0.1027320E+00  0.1185008E+00 -0.2571458E+01  0.9975726E-01  0.6396028E-01
 -0.3865100E+01  0.9331180E+01 -0.1027320E+00  0.1285834E+00 -0.2990607E+01  0.1271206E+00  0.1934060E-01
 -0.4761110E+01  0.8907400E+01 -0.1027320E+00  0.1580657E+00  0.2996077E+01  0.1563951E+00 -0.2291991E-01
 -0.5611260E+01  0.8397840E+01 -0.1027320E+00  0.1975365E+00  0.2819931E+01  0.1874051E+00 -0.6244987E-01
 -0.6407370E+01  0.7807410E+01 -0.1027320E+00  0.2400472E+00  0.2717668E+01  0.2187986E+00 -0.9874130E-01
 -0.7141780E+01  0.7141780E+01 -0.1027320E+00  0.2814392E+00  0.2658608E+01  0.2492461E+00 -0.1307073E+00
 -0.7807410E+01  0.6407370E+01 -0.1027320E+00  0.3208413E+00  0.2622305E+01  0.2785458E+00 -0.1592213E+00
 -0.8397840E+01  0.5611260E+01 -0.1027320E+00  0.3570955E+00  0.2600908E+01  0.3061582E+00 -0.1838053E+00
 -0.8907410E+01  0.4761110E+01 -0.1027320E+00  0.3892302E+00  0.2587798E+01  0.3310539E+00 -0.2047032E+00
 -0.9331180E+01  0.3865100E+01 -0.1027320E+00  0.4156426E+00  0.2580388E+01  0.3518890E+00 -0.2212078E+00
 -0.9665100E+01  0.2931880E+01 -0.1027320E+00  0.4370214E+00  0.2575742E+01  0.3689041E+00 -0.2343021E+00
 -0.9905930E+01  0.1970410E+01 -0.1027320E+00  0.4524620E+00  0.2573621E+01  0.3814226E+00 -0.2433899E+00
 -0.1005140E+02  0.9899730E+00 -0.1027320E+00  0.4620969E+00  0.2572465E+01  0.3892572E+00 -0.2490228E+00
 -0.1010000E+02 -0.8829700E-06 -0.1027320E+00  0.4650081E+00  0.2572354E+01  0.3916818E+00 -0.2506350E+00
 -0.1005140E+02 -0.9899740E+00 -0.1027320E+00  0.4620965E+00  0.2572465E+01  0.3892569E+00 -0.2490227E+00
 -0.9905930E+01 -0.1970410E+01 -0.1027320E+00  0.4524620E+00  0.2573622E+01  0.3814228E+00 -0.2433895E+00
 -0.9665100E+01 -0.2931880E+01 -0.1027320E+00  0.4370216E+00  0.2575742E+01  0.3689043E+00 -0.2343021E+00
 -0.9331180E+01 -0.3865100E+01 -0.1027320E+00  0.4156427E+00  0.2580389E+01  0.3518893E+00 -0.2212075E+00
 -0.8907400E+01 -0.4761110E+01 -0.1027320E+00  0.3892311E+00  0.2587798E+01  0.3310547E+00 -0.2047037E+00
 -0.8397840E+01 -0.5611260E+01 -0.1027320E+00  0.3570957E+00  0.2600909E+01  0.3061585E+00 -0.1838052E+00
 -0.7807400E+01 -0.6407370E+01 -0.1027320E+00  0.3208415E+00  0.2622305E+01  0.2785459E+00 -0.1592215E+00
 -0.7141780E+01 -0.7141780E+01 -0.1027320E+00  0.2814398E+00  0.2658607E+01  0.2492466E+00 -0.1307078E+00
 -0.6407370E+01 -0.7807410E+01 -0.1027320E+00  0.2400474E+00  0.2717668E+01  0.2187988E+00 -0.9874135E-01
 -0.5611260E+01 -0.8397850E+01 -0.1027320E+00  0.1975366E+00  0.2819934E+01  0.1874054E+00 -0.6244935E-01
 -0.4761110E+01 -0.8907410E+01 -0.1027320E+00  0.1580654E+00  0.2996079E+01  0.1563949E+00 -0.2291965E-01
 -0.3865100E+01 -0.9331190E+01 -0.1027320E+00  0.1285836E+00 -0.2990605E+01  0.1271207E+00  0.1934082E-01
 -0.2931870E+01 -0.9665100E+01 -0.1027320E+00  0.1185008E+00 -0.2571457E+01  0.9975725E-01  0.6396039E-01
 -0.1970410E+01 -0.9905930E+01 -0.1027320E+00  0.1341785E+00 -0.2161885E+01  0.7477302E-01  0.1114131E+00
 -0.9899710E+00 -0.1005140E+02 -0.1027320E+00  0.1687098E+00 -0.1889117E+01  0.5280149E-01  0.1602342E+00
  0.1204410E-06 -0.1010000E+02 -0.1027320E+00  0.2120506E+00 -0.1735170E+01  0.3469890E-01  0.2091924E+00
  0.9899760E+00 -0.1005140E+02 -0.1027320E+00  0.2589968E+00 -0.1648951E+01  0.2022112E-01  0.2582062E+00
  0.1970410E+01 -0.9905930E+01 -0.1027320E+00  0.3073955E+00 -0.1602522E+01  0.9750706E-02  0.3072408E+00
  0.2931880E+01 -0.9665100E+01 -0.1027320E+00  0.3550505E+00 -0.1578964E+01  0.2899992E-02  0.3550386E+00
  0.3865100E+01 -0.9331180E+01 -0.1027320E+00  0.4001324E+00 -0.1569741E+01 -0.4224495E-03  0.4001322E+00
  0.4761110E+01 -0.8907410E+01 -0.1027320E+00  0.4429379E+00 -0.1569305E+01 -0.6606388E-03  0.4429373E+00
  0.5611260E+01 -0.8397840E+01 -0.1027320E+00  0.4831192E+00 -0.1575427E+01  0.2237167E-02  0.4831140E+00
  0.6407370E+01 -0.7807410E+01 -0.1027320E+00  0.5201574E+00 -0.1584746E+01  0.7255841E-02  0.5201068E+00
  0.7141780E+01 -0.7141780E+01 -0.1027320E+00  0.5529730E+00 -0.1595363E+01  0.1358333E-01  0.5528061E+00
  0.7807410E+01 -0.6407370E+01 -0.1027320E+00  0.5824045E+00 -0.1606745E+01  0.2093212E-01  0.5820282E+00
  0.8397840E+01 -0.5611260E+01 -0.1027320E+00  0.6080075E+00 -0.1618584E+01  0.2904435E-01  0.6073134E+00
  0.8907410E+01 -0.4761110E+01 -0.1027320E+00  0.6299472E+00 -0.1629622E+01  0.3703575E-01  0.6288576E+00
  0.9331180E+01 -0.3865100E+01 -0.1027320E+00  0.6474294E+00 -0.1638794E+01  0.4398987E-01  0.6459332E+00
  0.9665100E+01 -0.2931870E+01 -0.1027320E+00  0.6613656E+00 -0.1646402E+01  0.4995563E-01  0.6594763E+00
  0.9905930E+01 -0.1970410E+01 -0.1027320E+00  0.6711305E+00 -0.1652168E+01  0.5455052E-01  0.6689098E+00
  0.1005140E+02 -0.9899690E+00 -0.1027320E+00  0.6772031E+00 -0.1655845E+01  0.5752549E-01  0.6747553E+00
  0.1010000E+02  0.0000000E+00 -0.2310450E+00  0.6738836E+00 -0.1657049E+01  0.5805250E-01  0.6713784E+00
  0.1005140E+02  0.9899730E+00 -0.2310450E+00  0.6719421E+00 -0.1655893E+01  0.5711112E-01  0.6695107E+00
  0.9905930E+01  0.1970410E+01 -0.2310450E+00  0.6659554E+00 -0.1652237E+01  0.5417614E-01  0.6637481E+00
  0.9665100E+01  0.2931880E+01 -0.2310450E+00  0.6562287E+00 -0.1646456E+01  0.4960251E-01  0.6543514E+00
  0.9331180E+01  0.3865100E+01 -0.2310450E+00  0.6425741E+00 -0.1638878E+01  0.4371364E-01  0.6410855E+00
  0.8907400E+01  0.4761110E+01 -0.2310450E+00  0.6250407E+00 -0.1629650E+01  0.3676504E-01  0.6239585E+00
  0.8397840E+01  0.5611260E+01 -0.2310450E+00  0.6033069E+00 -0.1618626E+01  0.2884474E-01  0.6026170E+00
  0.7807410E+01  0.6407370E+01 -0.2310450E+00  0.5778688E+00 -0.1606785E+01  0.2079234E-01  0.5774946E+00
  0.7141780E+01  0.7141780E+01 -0.2310450E+00  0.5487987E+00 -0.1595369E+01  0.1348388E-01  0.5486330E+00
  0.6407370E+01  0.7807410E+01 -0.2310450E+00  0.5160779E+00 -0.1584740E+01  0.7195829E-02  0.5160277E+00
  0.5611260E+01  0.8397840E+01 -0.2310450E+00  0.4793569E+00 -0.1575409E+01  0.2210994E-02  0.4793518E+00
  0.4761110E+01  0.8907410E+01 -0.2310450E+00  0.4394663E+00 -0.1569307E+01 -0.6544088E-03  0.4394658E+00
  0.3865100E+01  0.9331180E+01 -0.2310450E+00  0.3970553E+00 -0.1569606E+01 -0.4726078E-03  0.3970550E+00
  0.2931870E+01  0.9665100E+01 -0.2310450E+00  0.3522195E+00 -0.1578916E+01  0.2859800E-02  0.3522078E+00
  0.1970410E+01  0.9905930E+01 -0.2310450E+00  0.3049503E+00 -0.1602411E+01  0.9639431E-02  0.3047979E+00
  0.9899730E+00  0.1005140E+02 -0.2310450E+00  0.2569248E+00 -0.1648891E+01  0.2004402E-01  0.2561418E+00
 -0.4414850E-06  0.1010000E+02 -0.2310450E+00  0.2103044E+00 -0.1734888E+01  0.3435460E-01  0.2074794E+00
 -0.9899740E+00  0.1005140E+02 -0.2310450E+00  0.1672925E+00 -0.1889207E+01  0.5237215E-01  0.1588834E+00
 -0.1970410E+01  0.9905930E+01 -0.2310450E+00  0.1330227E+00 -0.2162108E+01  0.7415356E-01  0.1104368E+00
 -0.2931880E+01  0.9665100E+01 -0.2310450E+00  0.1175048E+00 -0.2571985E+01  0.9895225E-01  0.6337056E-01
 -0.3865100E+01  0.9331180E+01 -0.2310450E+00  0.1275139E+00 -0.2992161E+01  0.1260928E+00  0.1898382E-01
 -0.4761110E+01  0.8907400E+01 -0.2310450E+00  0.1568485E+00  0.2995224E+01  0.1551714E+00 -0.2287591E-01
 -0.5611260E+01  0.8397840E+01 -0.2310450E+00  0.1960355E+00  0.2819139E+01  0.1859320E+00 -0.6212264E-01
 -0.6407370E+01  0.7807410E+01 -0.2310450E+00  0.2382118E+00  0.2717143E+01  0.2170741E+00 -0.9810033E-01
 -0.7141780E+01  0.7141780E+01 -0.2310450E+00  0.2794175E+00  0.2657722E+01  0.2473407E+00 -0.1299874E+00
 -0.7807410E+01  0.6407370E+01 -0.2310450E+00  0.3184280E+00  0.2621895E+01  0.2763857E+00 -0.1581371E+00
 -0.8397840E+01  0.5611260E+01 -0.2310450E+00  0.3544299E+00  0.2600473E+01  0.3037933E+00 -0.1825655E+00
 -0.8907410E+01  0.4761110E+01 -0.2310450E+00  0.3862773E+00  0.2587451E+01  0.3284718E+00 -0.2032643E+00
 -0.9331180E+01  0.3865100E+01 -0.2310450E+00  0.4126795E+00  0.2579808E+01  0.3492531E+00 -0.2198333E+00
 -0.9665100E+01  0.2931880E+01 -0.2310450E+00  0.4337216E+00  0.2575437E+01  0.3660477E+00 -0.2326447E+00
 -0.9905930E+01  0.1970410E+01 -0.2310450E+00  0.4490841E+00  0.2573284E+01  0.3784937E+00 -0.2417005E+00
 -0.1005140E+02  0.9899730E+00 -0.2310450E+00  0.4585981E+00  0.2572170E+01  0.3862370E+00 -0.2472513E+00
 -0.1010000E+02 -0.8829700E-06 -0.2310450E+00  0.4616928E+00  0.2571844E+01  0.3887621E+00 -0.2490467E+00
 -0.1005140E+02 -0.9899740E+00 -0.2310450E+00  0.4585982E+00  0.2572170E+01  0.3862372E+00 -0.2472511E+00
 -0.9905930E+01 -0.1970410E+01 -0.2310450E+00  0.4490840E+00  0.2573284E+01  0.3784936E+00 -0.2417004E+00
 -0.9665100E+01 -0.2931880E+01 -0.2310450E+00  0.4337220E+00  0.2575436E+01  0.3660478E+00 -0.2326453E+00
 -0.9331180E+01 -0.3865100E+01 -0.2310450E+00  0.4126792E+00  0.2579807E+01  0.3492525E+00 -0.2198336E+00
 -0.8907400E+01 -0.4761110E+01 -0.2310450E+00  0.3862779E+00  0.2587451E+01  0.3284724E+00 -0.2032646E+00
 -0.8397840E+01 -0.5611260E+01 -0.2310450E+00  0.3544300E+00  0.2600472E+01  0.3037933E+00 -0.1825656E+00
 -0.7807400E+01 -0.6407370E+01 -0.2310450E+00  0.3184285E+00  0.2621895E+01  0.2763862E+00 -0.1581373E+00
 -0.7141780E+01 -0.7141780E+01 -0.2310450E+00  0.2794175E+00  0.2657722E+01  0.2473407E+00 -0.1299875E+00
 -0.6407370E+01 -0.7807410E+01 -0.2310450E+00  0.2382121E+00  0.2717142E+01  0.2170744E+00 -0.9810057E-01
 -0.5611260E+01 -0.8397850E+01 -0.2310450E+00  0.1960355E+00  0.2819141E+01  0.1859321E+00 -0.6212214E-01
 -0.4761110E+01 -0.8907410E+01 -0.2310450E+00  0.1568484E+00  0.2995224E+01  0.1551713E+00 -0.2287573E-01
 -0.3865100E+01 -0.9331190E+01 -0.2310450E+00  0.1275139E+00 -0.2992159E+01  0.1260928E+00  0.1898404E-01
 -0.2931870E+01 -0.9665100E+01 -0.2310450E+00  0.1175051E+00 -0.2571985E+01  0.9895255E-01  0.6337073E-01
 -0.1970410E+01 -0.9905930E+01 -0.2310450E+00  0.1330227E+00 -0.2162111E+01  0.7415388E-01  0.1104366E+00
 -0.9899710E+00 -0.1005140E+02 -0.2310450E+00  0.1672926E+00 -0.1889210E+01  0.5237265E-01  0.1588833E+00
  0.1204410E-06 -0.1010000E+02 -0.2310450E+00  0.2103042E+00 -0.1734889E+01  0.3435481E-01  0.2074792E+00
  0.9899760E+00 -0.1005140E+02 -0.2310450E+00  0.2569248E+00 -0.1648890E+01  0.2004395E-01  0.2561418E+00
  0.1970410E+01 -0.9905930E+01 -0.2310450E+00  0.3049497E+00 -0.1602411E+01  0.9639367E-02  0.3047974E+00
  0.2931880E+01 -0.9665100E+01 -0.2310450E+00  0.3522197E+00 -0.1578916E+01  0.2859802E-02  0.3522081E+00
  0.3865100E+01 -0.9331180E+01 -0.2310450E+00  0.3970549E+00 -0.1569606E+01 -0.4724570E-03  0.3970546E+00
  0.4761110E+01 -0.8907410E+01 -0.2310450E+00  0.4394658E+00 -0.1569307E+01 -0.6542951E-03  0.4394653E+00
  0.5611260E+01 -0.8397840E+01 -0.2310450E+00  0.4793570E+00 -0.1575409E+01  0.2211028E-02  0.4793519E+00
  0.6407370E+01 -0.7807410E+01 -0.2310450E+00  0.5160774E+00 -0.1584740E+01  0.7195893E-02  0.5160272E+00
  0.7141780E+01 -0.7141780E+01 -0.2310450E+00  0.5487981E+00 -0.1595369E+01  0.1348387E-01  0.5486324E+00
  0.7807410E+01 -0.6407370E+01 -0.2310450E+00  0.5778688E+00 -0.1606785E+01  0.2079242E-01  0.5774946E+00
  0.8397840E+01 -0.5611260E+01 -0.2310450E+00  0.6033070E+00 -0.1618625E+01  0.2884463E-01  0.6026171E+00
  0.8907410E+01 -0.4761110E+01 -0.2310450E+00  0.6250401E+00 -0.1629650E+01  0.3676461E-01  0.6239579E+00
  0.9331180E+01 -0.3865100E+01 -0.2310450E+00  0.6425738E+00 -0.1638878E+01  0.4371341E-01  0.6410851E+00
  0.9665100E+01 -0.2931870E+01 -0.2310450E+00  0.6562282E+00 -0.1646456E+01  0.4960258E-01  0.6543508E+00
  0.9905930E+01 -0.1970410E+01 -0.2310450E+00  0.6659549E+00 -0.1652237E+01  0.5417603E-01  0.6637477E+00
  0.1005140E+02 -0.9899690E+00 -0.2310450E+00  0.6719423E+00 -0.1655893E+01  0.5711126E-01  0.6695108E+00
  0.1010000E+02  0.0000000E+00 -0.4105000E+00  0.6666146E+00 -0.1657103E+01  0.5746195E-01  0.6641334E+00
  0.1005140E+02  0.9899730E+00 -0.4105000E+00  0.6644753E+00 -0.1655880E+01  0.5646773E-01  0.6620716E+00
  0.9905930E+01  0.1970410E+01 -0.4105000E+00  0.6586463E+00 -0.1652271E+01  0.5360337E-01  0.6564615E+00
  0.9665100E+01  0.2931880E+01 -0.4105000E+00  0.6489357E+00 -0.1646465E+01  0.4905705E-01  0.6470788E+00
  0.9331180E+01  0.3865100E+01 -0.4105000E+00  0.6356310E+00 -0.1638927E+01  0.4327241E-01  0.6341563E+00
  0.8907400E+01  0.4761110E+01 -0.4105000E+00  0.6180757E+00 -0.1629646E+01  0.3635247E-01  0.6170058E+00
  0.8397840E+01  0.5611260E+01 -0.4105000E+00  0.5966699E+00 -0.1618663E+01  0.2854994E-01  0.5959865E+00
  0.7807410E+01  0.6407370E+01 -0.4105000E+00  0.5714359E+00 -0.1606842E+01  0.2059324E-01  0.5710647E+00
  0.7141780E+01  0.7141780E+01 -0.4105000E+00  0.5428372E+00 -0.1595401E+01  0.1335517E-01  0.5426729E+00
  0.6407370E+01  0.7807410E+01 -0.4105000E+00  0.5102948E+00 -0.1584779E+01  0.7134866E-02  0.5102449E+00
  0.5611260E+01  0.8397840E+01 -0.4105000E+00  0.4740552E+00 -0.1575454E+01  0.2207892E-02  0.4740500E+00
  0.4761110E+01  0.8907410E+01 -0.4105000E+00  0.4345605E+00 -0.1569434E+01 -0.5921994E-03  0.4345601E+00
  0.3865100E+01  0.9331180E+01 -0.4105000E+00  0.3926897E+00 -0.1569609E+01 -0.4662018E-03  0.3926894E+00
  0.2931870E+01  0.9665100E+01 -0.4105000E+00  0.3482353E+00 -0.1579056E+01  0.2876111E-02  0.3482234E+00
  0.1970410E+01  0.9905930E+01 -0.4105000E+00  0.3015339E+00 -0.1602480E+01  0.9552169E-02  0.3013825E+00
  0.9899730E+00  0.1005140E+02 -0.4105000E+00  0.2540480E+00 -0.1649130E+01  0.1988021E-01  0.2532690E+00
 -0.4414850E-06  0.1010000E+02 -0.4105000E+00  0.2079087E+00 -0.1734935E+01  0.3397274E-01  0.2051143E+00
 -0.9899740E+00  0.1005140E+02 -0.4105000E+00  0.1653781E+00 -0.1889728E+01  0.5185468E-01  0.1570382E+00
 -0.1970410E+01  0.9905930E+01 -0.4105000E+00  0.1314882E+00 -0.2162612E+01  0.7335322E-01  0.1091259E+00
 -0.2931880E+01  0.9665100E+01 -0.4105000E+00  0.1162119E+00 -0.2572423E+01  0.9789098E-01  0.6263036E-01
 -0.3865100E+01  0.9331180E+01 -0.4105000E+00  0.1260956E+00 -0.2993491E+01  0.1247152E+00  0.1860673E-01
 -0.4761110E+01  0.8907400E+01 -0.4105000E+00  0.1551725E+00  0.2994739E+01  0.1535023E+00 -0.2270591E-01
 -0.5611260E+01  0.8397840E+01 -0.4105000E+00  0.1939312E+00  0.2818526E+01  0.1838984E+00 -0.6156850E-01
 -0.6407370E+01  0.7807410E+01 -0.4105000E+00  0.2355949E+00  0.2716924E+01  0.2146682E+00 -0.9706949E-01
 -0.7141780E+01  0.7141780E+01 -0.4105000E+00  0.2764866E+00  0.2657011E+01  0.2446547E+00 -0.1287981E+00