 VARIABLES="X" "Y" "Z" "abs(eta) (m)" "angle(phi) (rad)" "PRE1" "PRE2"
ZONE N=   3200 ,E =    3136 ,F=FEPOINT,ET=QUADRILATERAL
  0.1010000E+02  0.0000000E+00  0.0000000E+00  0.8090606E+00 -0.1319301E+01 -0.2013365E+00  0.7836087E+00
  0.1005140E+02  0.9899730E+00  0.0000000E+00  0.8042618E+00 -0.1319171E+01 -0.2002439E+00  0.7789348E+00
  0.9905930E+01  0.1970410E+01  0.0000000E+00  0.7923219E+00 -0.1319127E+01 -0.1973048E+00  0.7673623E+00
  0.9665100E+01  0.2931880E+01  0.0000000E+00  0.7732592E+00 -0.1319158E+01 -0.1925346E+00  0.7489060E+00
  0.9331180E+01  0.3865100E+01  0.0000000E+00  0.7474740E+00 -0.1319302E+01 -0.1860103E+00  0.7239596E+00
  0.8907400E+01  0.4761110E+01  0.0000000E+00  0.7128313E+00 -0.1319188E+01 -0.1774679E+00  0.6903866E+00
  0.8397840E+01  0.5611260E+01  0.0000000E+00  0.6716949E+00 -0.1319127E+01 -0.1672664E+00  0.6505352E+00
  0.7807410E+01  0.6407370E+01  0.0000000E+00  0.6245313E+00 -0.1319139E+01 -0.1555145E+00  0.6048591E+00
  0.7141780E+01  0.7141780E+01  0.0000000E+00  0.5720937E+00 -0.1319302E+01 -0.1423664E+00  0.5540966E+00
  0.6407370E+01  0.7807410E+01  0.0000000E+00  0.5128683E+00 -0.1319212E+01 -0.1276728E+00  0.4967229E+00
  0.5611260E+01  0.8397840E+01  0.0000000E+00  0.4488165E+00 -0.1319128E+01 -0.1117645E+00  0.4346780E+00
  0.4761110E+01  0.8907410E+01  0.0000000E+00  0.3807212E+00 -0.1319100E+01 -0.9481752E-01  0.3687252E+00
  0.3865100E+01  0.9331180E+01  0.0000000E+00  0.3096129E+00 -0.1319302E+01 -0.7704759E-01  0.2998730E+00
  0.2931870E+01  0.9665100E+01  0.0000000E+00  0.2348347E+00 -0.1319289E+01 -0.5844184E-01  0.2274464E+00
  0.1970410E+01  0.9905930E+01  0.0000000E+00  0.1575957E+00 -0.1319122E+01 -0.3924544E-01  0.1526309E+00
  0.9899730E+00  0.1005140E+02  0.0000000E+00  0.7895252E-01 -0.1318800E+01 -0.1968587E-01  0.7645892E-01
 -0.4414850E-06  0.1010000E+02  0.0000000E+00  0.5543989E-06 -0.3091109E+01  0.5536926E-06  0.2797618E-07
 -0.9899740E+00  0.1005140E+02  0.0000000E+00  0.7895266E-01  0.1822803E+01  0.1968665E-01 -0.7645887E-01
 -0.1970410E+01  0.9905930E+01  0.0000000E+00  0.1575961E+00  0.1822476E+01  0.3924628E-01 -0.1526311E+00
 -0.2931880E+01  0.9665100E+01  0.0000000E+00  0.2348356E+00  0.1822306E+01  0.5844273E-01 -0.2274471E+00
 -0.3865100E+01  0.9331180E+01  0.0000000E+00  0.3096133E+00  0.1822294E+01  0.7704886E-01 -0.2998731E+00
 -0.4761110E+01  0.8907400E+01  0.0000000E+00  0.3807220E+00  0.1822494E+01  0.9481838E-01 -0.3687258E+00
 -0.5611260E+01  0.8397840E+01  0.0000000E+00  0.4488168E+00  0.1822467E+01  0.1117655E+00 -0.4346781E+00
 -0.6407370E+01  0.7807410E+01  0.0000000E+00  0.5128685E+00  0.1822382E+01  0.1276737E+00 -0.4967228E+00
 -0.7141780E+01  0.7141780E+01  0.0000000E+00  0.5720937E+00  0.1822293E+01  0.1423675E+00 -0.5540963E+00
 -0.7807410E+01  0.6407370E+01  0.0000000E+00  0.6245316E+00  0.1822455E+01  0.1555151E+00 -0.6048593E+00
 -0.8397840E+01  0.5611260E+01  0.0000000E+00  0.6716954E+00  0.1822466E+01  0.1672668E+00 -0.6505356E+00
 -0.8907410E+01  0.4761110E+01  0.0000000E+00  0.7128309E+00  0.1822406E+01  0.1774686E+00 -0.6903859E+00
 -0.9331180E+01  0.3865100E+01  0.0000000E+00  0.7474737E+00  0.1822292E+01  0.1860112E+00 -0.7239590E+00
 -0.9665100E+01  0.2931880E+01  0.0000000E+00  0.7732596E+00  0.1822436E+01  0.1925358E+00 -0.7489062E+00
 -0.9905930E+01  0.1970410E+01  0.0000000E+00  0.7923229E+00  0.1822467E+01  0.1973061E+00 -0.7673629E+00
 -0.1005140E+02  0.9899730E+00  0.0000000E+00  0.8042618E+00  0.1822423E+01  0.2002445E+00 -0.7789347E+00
 -0.1010000E+02 -0.8829700E-06  0.0000000E+00  0.8090627E+00  0.1822292E+01  0.2013373E+00 -0.7836108E+00
 -0.1005140E+02 -0.9899740E+00  0.0000000E+00  0.8042619E+00  0.1822423E+01  0.2002451E+00 -0.7789345E+00
 -0.9905930E+01 -0.1970410E+01  0.0000000E+00  0.7923228E+00  0.1822467E+01  0.1973058E+00 -0.7673629E+00
 -0.9665100E+01 -0.2931880E+01  0.0000000E+00  0.7732586E+00  0.1822436E+01  0.1925355E+00 -0.7489052E+00
 -0.9331180E+01 -0.3865100E+01  0.0000000E+00  0.7474738E+00  0.1822293E+01  0.1860117E+00 -0.7239591E+00
 -0.8907400E+01 -0.4761110E+01  0.0000000E+00  0.7128316E+00  0.1822406E+01  0.1774687E+00 -0.6903867E+00
 -0.8397840E+01 -0.5611260E+01  0.0000000E+00  0.6716962E+00  0.1822467E+01  0.1672674E+00 -0.6505362E+00
 -0.7807400E+01 -0.6407370E+01  0.0000000E+00  0.6245319E+00  0.1822455E+01  0.1555154E+00 -0.6048595E+00
 -0.7141780E+01 -0.7141780E+01  0.0000000E+00  0.5720943E+00  0.1822293E+01  0.1423676E+00 -0.5540968E+00
 -0.6407370E+01 -0.7807410E+01  0.0000000E+00  0.5128696E+00  0.1822382E+01  0.1276738E+00 -0.4967239E+00
 -0.5611260E+01 -0.8397850E+01  0.0000000E+00  0.4488167E+00  0.1822467E+01  0.1117653E+00 -0.4346779E+00
 -0.4761110E+01 -0.8907410E+01  0.0000000E+00  0.3807219E+00  0.1822495E+01  0.9481845E-01 -0.3687257E+00
 -0.3865100E+01 -0.9331190E+01  0.0000000E+00  0.3096133E+00  0.1822293E+01  0.7704859E-01 -0.2998732E+00
 -0.2931870E+01 -0.9665100E+01  0.0000000E+00  0.2348353E+00  0.1822305E+01  0.5844248E-01 -0.2274469E+00
 -0.1970410E+01 -0.9905930E+01  0.0000000E+00  0.1575961E+00  0.1822474E+01  0.3924604E-01 -0.1526312E+00
 -0.9899710E+00 -0.1005140E+02  0.0000000E+00  0.7895274E-01  0.1822801E+01  0.1968653E-01 -0.7645898E-01
  0.1204410E-06 -0.1010000E+02  0.0000000E+00  0.6340460E-06  0.2697747E+01  0.5726114E-06 -0.2722690E-06
  0.9899760E+00 -0.1005140E+02  0.0000000E+00  0.7895235E-01 -0.1318801E+01 -0.1968569E-01  0.7645880E-01
  0.1970410E+01 -0.9905930E+01  0.0000000E+00  0.1575956E+00 -0.1319124E+01 -0.3924509E-01  0.1526309E+00
  0.2931880E+01 -0.9665100E+01  0.0000000E+00  0.2348350E+00 -0.1319289E+01 -0.5844195E-01  0.2274467E+00
  0.3865100E+01 -0.9331180E+01  0.0000000E+00  0.3096126E+00 -0.1319302E+01 -0.7704759E-01  0.2998727E+00
  0.4761110E+01 -0.8907410E+01  0.0000000E+00  0.3807209E+00 -0.1319100E+01 -0.9481730E-01  0.3687249E+00
  0.5611260E+01 -0.8397840E+01  0.0000000E+00  0.4488167E+00 -0.1319127E+01 -0.1117646E+00  0.4346781E+00
  0.6407370E+01 -0.7807410E+01  0.0000000E+00  0.5128687E+00 -0.1319212E+01 -0.1276728E+00  0.4967232E+00
  0.7141780E+01 -0.7141780E+01  0.0000000E+00  0.5720928E+00 -0.1319302E+01 -0.1423664E+00  0.5540957E+00
  0.7807410E+01 -0.6407370E+01  0.0000000E+00  0.6245303E+00 -0.1319139E+01 -0.1555140E+00  0.6048582E+00
  0.8397840E+01 -0.5611260E+01  0.0000000E+00  0.6716948E+00 -0.1319127E+01 -0.1672664E+00  0.6505350E+00
  0.8907410E+01 -0.4761110E+01  0.0000000E+00  0.7128304E+00 -0.1319188E+01 -0.1774678E+00  0.6903857E+00
  0.9331180E+01 -0.3865100E+01  0.0000000E+00  0.7474737E+00 -0.1319301E+01 -0.1860105E+00  0.7239592E+00
  0.9665100E+01 -0.2931870E+01  0.0000000E+00  0.7732588E+00 -0.1319158E+01 -0.1925348E+00  0.7489055E+00
  0.9905930E+01 -0.1970410E+01  0.0000000E+00  0.7923219E+00 -0.1319127E+01 -0.1973047E+00  0.7673623E+00
  0.1005140E+02 -0.9899690E+00  0.0000000E+00  0.8042617E+00 -0.1319171E+01 -0.2002437E+00  0.7789347E+00
  0.1010000E+02  0.0000000E+00 -0.2568960E-01  0.8081052E+00 -0.1319324E+01 -0.2010811E+00  0.7826880E+00
  0.1005140E+02  0.9899730E+00 -0.2568960E-01  0.8032820E+00 -0.1319189E+01 -0.1999856E+00  0.7779895E+00
  0.9905930E+01  0.1970410E+01 -0.2568960E-01  0.7911925E+00 -0.1319121E+01 -0.1970284E+00  0.7662672E+00
  0.9665100E+01  0.2931880E+01 -0.2568960E-01  0.7723161E+00 -0.1319175E+01 -0.1922867E+00  0.7479960E+00
  0.9331180E+01  0.3865100E+01 -0.2568960E-01  0.7465895E+00 -0.1319324E+01 -0.1857743E+00  0.7231071E+00
  0.8907400E+01  0.4761110E+01 -0.2568960E-01  0.7119626E+00 -0.1319206E+01 -0.1772391E+00  0.6895484E+00
  0.8397840E+01  0.5611260E+01 -0.2568960E-01  0.6707370E+00 -0.1319120E+01 -0.1670324E+00  0.6496062E+00
  0.7807410E+01  0.6407370E+01 -0.2568960E-01  0.6237699E+00 -0.1319157E+01 -0.1553138E+00  0.6041245E+00
  0.7141780E+01  0.7141780E+01 -0.2568960E-01  0.5714170E+00 -0.1319324E+01 -0.1421859E+00  0.5534443E+00
  0.6407370E+01  0.7807410E+01 -0.2568960E-01  0.5122434E+00 -0.1319229E+01 -0.1275085E+00  0.4961198E+00
  0.5611260E+01  0.8397840E+01 -0.2568960E-01  0.4481765E+00 -0.1319122E+01 -0.1116076E+00  0.4340575E+00
  0.4761110E+01  0.8907410E+01 -0.2568960E-01  0.3802568E+00 -0.1319118E+01 -0.9469516E-01  0.3682772E+00
  0.3865100E+01  0.9331180E+01 -0.2568960E-01  0.3092469E+00 -0.1319324E+01 -0.7694986E-01  0.2995202E+00
  0.2931870E+01  0.9665100E+01 -0.2568960E-01  0.2345485E+00 -0.1319308E+01 -0.5836643E-01  0.2271703E+00
  0.1970410E+01  0.9905930E+01 -0.2568960E-01  0.1573709E+00 -0.1319118E+01 -0.3919000E-01  0.1524131E+00
  0.9899730E+00  0.1005140E+02 -0.2568960E-01  0.7885588E-01 -0.1318818E+01 -0.1966034E-01  0.7636570E-01
 -0.4414850E-06  0.1010000E+02 -0.2568960E-01  0.5337225E-06  0.2919202E+01  0.5205785E-06 -0.1177187E-06
 -0.9899740E+00  0.1005140E+02 -0.2568960E-01  0.7885636E-01  0.1822784E+01  0.1966123E-01 -0.7636598E-01
 -0.1970410E+01  0.9905930E+01 -0.2568960E-01  0.1573710E+00  0.1822480E+01  0.3919090E-01 -0.1524130E+00
 -0.2931880E+01  0.9665100E+01 -0.2568960E-01  0.2345494E+00  0.1822290E+01  0.5836781E-01 -0.2271709E+00
 -0.3865100E+01  0.9331180E+01 -0.2568960E-01  0.3092475E+00  0.1822272E+01  0.7695102E-01 -0.2995206E+00
 -0.4761110E+01  0.8907400E+01 -0.2568960E-01  0.3802579E+00  0.1822476E+01  0.9469608E-01 -0.3682781E+00
 -0.5611260E+01  0.8397840E+01 -0.2568960E-01  0.4481767E+00  0.1822473E+01  0.1116085E+00 -0.4340574E+00
 -0.6407370E+01  0.7807410E+01 -0.2568960E-01  0.5122440E+00  0.1822364E+01  0.1275091E+00 -0.4961203E+00
 -0.7141780E+01  0.7141780E+01 -0.2568960E-01  0.5714177E+00  0.1822270E+01  0.1421868E+00 -0.5534447E+00
 -0.7807410E+01  0.6407370E+01 -0.2568960E-01  0.6237708E+00  0.1822438E+01  0.1553152E+00 -0.6041252E+00
 -0.8397840E+01  0.5611260E+01 -0.2568960E-01  0.6707376E+00  0.1822473E+01  0.1670326E+00 -0.6496068E+00
 -0.8907410E+01  0.4761110E+01 -0.2568960E-01  0.7119632E+00  0.1822388E+01  0.1772401E+00 -0.6895488E+00
 -0.9331180E+01  0.3865100E+01 -0.2568960E-01  0.7465911E+00  0.1822270E+01  0.1857752E+00 -0.7231085E+00
 -0.9665100E+01  0.2931880E+01 -0.2568960E-01  0.7723159E+00  0.1822418E+01  0.1922874E+00 -0.7479956E+00
 -0.9905930E+01  0.1970410E+01 -0.2568960E-01  0.7911921E+00  0.1822473E+01  0.1970292E+00 -0.7662666E+00
 -0.1005140E+02  0.9899730E+00 -0.2568960E-01  0.8032816E+00  0.1822405E+01  0.1999865E+00 -0.7779889E+00
 -0.1010000E+02 -0.8829700E-06 -0.2568960E-01  0.8081058E+00  0.1822270E+01  0.2010823E+00 -0.7826882E+00
 -0.1005140E+02 -0.9899740E+00 -0.2568960E-01  0.8032820E+00  0.1822405E+01  0.1999870E+00 -0.7779892E+00
 -0.9905930E+01 -0.1970410E+01 -0.2568960E-01  0.7911921E+00  0.1822473E+01  0.1970290E+00 -0.7662665E+00
 -0.9665100E+01 -0.2931880E+01 -0.2568960E-01  0.7723164E+00  0.1822418E+01  0.1922874E+00 -0.7479961E+00
 -0.9331180E+01 -0.3865100E+01 -0.2568960E-01  0.7465910E+00  0.1822271E+01  0.1857758E+00 -0.7231082E+00
 -0.8907400E+01 -0.4761110E+01 -0.2568960E-01  0.7119628E+00  0.1822388E+01  0.1772401E+00 -0.6895484E+00
 -0.8397840E+01 -0.5611260E+01 -0.2568960E-01  0.6707379E+00  0.1822473E+01  0.1670329E+00 -0.6496070E+00
 -0.7807400E+01 -0.6407370E+01 -0.2568960E-01  0.6237705E+00  0.1822437E+01  0.1553145E+00 -0.6041251E+00
 -0.7141780E+01 -0.7141780E+01 -0.2568960E-01  0.5714173E+00  0.1822271E+01  0.1421870E+00 -0.5534443E+00
 -0.6407370E+01 -0.7807410E+01 -0.2568960E-01  0.5122440E+00  0.1822365E+01  0.1275097E+00 -0.4961202E+00
 -0.5611260E+01 -0.8397850E+01 -0.2568960E-01  0.4481764E+00  0.1822472E+01  0.1116083E+00 -0.4340573E+00
 -0.4761110E+01 -0.8907410E+01 -0.2568960E-01  0.3802576E+00  0.1822477E+01  0.9469621E-01 -0.3682777E+00
 -0.3865100E+01 -0.9331190E+01 -0.2568960E-01  0.3092467E+00  0.1822272E+01  0.7695095E-01 -0.2995197E+00
 -0.2931870E+01 -0.9665100E+01 -0.2568960E-01  0.2345493E+00  0.1822289E+01  0.5836754E-01 -0.2271708E+00
 -0.1970410E+01 -0.9905930E+01 -0.2568960E-01  0.1573716E+00  0.1822481E+01  0.3919116E-01 -0.1524135E+00
 -0.9899710E+00 -0.1005140E+02 -0.2568960E-01  0.7885626E-01  0.1822785E+01  0.1966125E-01 -0.7636587E-01
  0.1204410E-06 -0.1010000E+02 -0.2568960E-01  0.5221611E-06  0.2661536E+01  0.4631406E-06 -0.2411493E-06
  0.9899760E+00 -0.1005140E+02 -0.2568960E-01  0.7885601E-01 -0.1318820E+01 -0.1966027E-01  0.7636585E-01
  0.1970410E+01 -0.9905930E+01 -0.2568960E-01  0.1573707E+00 -0.1319119E+01 -0.3918989E-01  0.1524129E+00
  0.2931880E+01 -0.9665100E+01 -0.2568960E-01  0.2345489E+00 -0.1319308E+01 -0.5836659E-01  0.2271707E+00
  0.3865100E+01 -0.9331180E+01 -0.2568960E-01  0.3092466E+00 -0.1319324E+01 -0.7694991E-01  0.2995199E+00
  0.4761110E+01 -0.8907410E+01 -0.2568960E-01  0.3802568E+00 -0.1319118E+01 -0.9469511E-01  0.3682771E+00
  0.5611260E+01 -0.8397840E+01 -0.2568960E-01  0.4481764E+00 -0.1319121E+01 -0.1116079E+00  0.4340573E+00
  0.6407370E+01 -0.7807410E+01 -0.2568960E-01  0.5122434E+00 -0.1319230E+01 -0.1275084E+00  0.4961199E+00
  0.7141780E+01 -0.7141780E+01 -0.2568960E-01  0.5714169E+00 -0.1319324E+01 -0.1421857E+00  0.5534442E+00
  0.7807410E+01 -0.6407370E+01 -0.2568960E-01  0.6237694E+00 -0.1319157E+01 -0.1553136E+00  0.6041241E+00
  0.8397840E+01 -0.5611260E+01 -0.2568960E-01  0.6707370E+00 -0.1319120E+01 -0.1670320E+00  0.6496063E+00
  0.8907410E+01 -0.4761110E+01 -0.2568960E-01  0.7119612E+00 -0.1319206E+01 -0.1772389E+00  0.6895470E+00
  0.9331180E+01 -0.3865100E+01 -0.2568960E-01  0.7465900E+00 -0.1319323E+01 -0.1857746E+00  0.7231075E+00
  0.9665100E+01 -0.2931870E+01 -0.2568960E-01  0.7723160E+00 -0.1319175E+01 -0.1922868E+00  0.7479959E+00
  0.9905930E+01 -0.1970410E+01 -0.2568960E-01  0.7911923E+00 -0.1319121E+01 -0.1970284E+00  0.7662669E+00
  0.1005140E+02 -0.9899690E+00 -0.2568960E-01  0.8032818E+00 -0.1319189E+01 -0.1999857E+00  0.7779893E+00
  0.1010000E+02  0.0000000E+00 -0.1027320E+00  0.8051460E+00 -0.1319380E+01 -0.2003009E+00  0.7798331E+00
  0.1005140E+02  0.9899730E+00 -0.1027320E+00  0.8002708E+00 -0.1319236E+01 -0.1992002E+00  0.7750823E+00
  0.9905930E+01  0.1970410E+01 -0.1027320E+00  0.7878891E+00 -0.1319117E+01 -0.1962085E+00  0.7630671E+00
  0.9665100E+01  0.2931880E+01 -0.1027320E+00  0.7694204E+00 -0.1319221E+01 -0.1915314E+00  0.7452003E+00
  0.9331180E+01  0.3865100E+01 -0.1027320E+00  0.7438576E+00 -0.1319380E+01 -0.1850537E+00  0.7204716E+00
  0.8907400E+01  0.4761110E+01 -0.1027320E+00  0.7092938E+00 -0.1319253E+01 -0.1765428E+00  0.6869719E+00
  0.8397840E+01  0.5611260E+01 -0.1027320E+00  0.6679368E+00 -0.1319116E+01 -0.1663371E+00  0.6468937E+00
  0.7807410E+01  0.6407370E+01 -0.1027320E+00  0.6214316E+00 -0.1319203E+01 -0.1547036E+00  0.6018671E+00
  0.7141780E+01  0.7141780E+01 -0.1027320E+00  0.5693254E+00 -0.1319380E+01 -0.1416344E+00  0.5514264E+00
  0.6407370E+01  0.7807410E+01 -0.1027320E+00  0.5103239E+00 -0.1319277E+01 -0.1270074E+00  0.4942668E+00
  0.5611260E+01  0.8397840E+01 -0.1027320E+00  0.4463056E+00 -0.1319118E+01 -0.1111436E+00  0.4322451E+00
  0.4761110E+01  0.8907410E+01 -0.1027320E+00  0.3788319E+00 -0.1319165E+01 -0.9432327E-01  0.3669015E+00
  0.3865100E+01  0.9331180E+01 -0.1027320E+00  0.3081150E+00 -0.1319381E+01 -0.7665146E-01  0.2984282E+00
  0.2931870E+01  0.9665100E+01 -0.1027320E+00  0.2336696E+00 -0.1319354E+01 -0.5813720E-01  0.2263218E+00
  0.1970410E+01  0.9905930E+01 -0.1027320E+00  0.1567140E+00 -0.1319114E+01 -0.3902703E-01  0.1517767E+00
  0.9899730E+00  0.1005140E+02 -0.1027320E+00  0.7856002E-01 -0.1318861E+01 -0.1958334E-01  0.7608002E-01
 -0.4414850E-06  0.1010000E+02 -0.1027320E+00  0.4364033E-06  0.3125789E+01  0.4363488E-06 -0.6896328E-08
 -0.9899740E+00  0.1005140E+02 -0.1027320E+00  0.7856055E-01  0.1822741E+01  0.1958419E-01 -0.7608035E-01
 -0.1970410E+01  0.9905930E+01 -0.1027320E+00  0.1567142E+00  0.1822484E+01  0.3902793E-01 -0.1517767E+00
 -0.2931880E+01  0.9665100E+01 -0.1027320E+00  0.2336705E+00  0.1822241E+01  0.5813810E-01 -0.2263225E+00
 -0.3865100E+01  0.9331180E+01 -0.1027320E+00  0.3081151E+00  0.1822215E+01  0.7665247E-01 -0.2984281E+00
 -0.4761110E+01  0.8907400E+01 -0.1027320E+00  0.3788324E+00  0.1822431E+01  0.9432437E-01 -0.3669018E+00
 -0.5611260E+01  0.8397840E+01 -0.1027320E+00  0.4463061E+00  0.1822477E+01  0.1111446E+00 -0.4322453E+00
 -0.6407370E+01  0.7807410E+01 -0.1027320E+00  0.5103246E+00  0.1822317E+01  0.1270080E+00 -0.4942673E+00
 -0.7141780E+01  0.7141780E+01 -0.1027320E+00  0.5693259E+00  0.1822213E+01  0.1416350E+00 -0.5514268E+00
 -0.7807410E+01  0.6407370E+01 -0.1027320E+00  0.6214318E+00  0.1822391E+01  0.1547044E+00 -0.6018671E+00
 -0.8397840E+01  0.5611260E+01 -0.1027320E+00  0.6679371E+00  0.1822477E+01  0.1663380E+00 -0.6468939E+00
 -0.8907410E+01  0.4761110E+01 -0.1027320E+00  0.7092934E+00  0.1822341E+01  0.1765436E+00 -0.6869712E+00
 -0.9331180E+01  0.3865100E+01 -0.1027320E+00  0.7438582E+00  0.1822214E+01  0.1850549E+00 -0.7204719E+00
 -0.9665100E+01  0.2931880E+01 -0.1027320E+00  0.7694221E+00  0.1822372E+01  0.1915323E+00 -0.7452018E+00
 -0.9905930E+01  0.1970410E+01 -0.1027320E+00  0.7878903E+00  0.1822477E+01  0.1962097E+00 -0.7630680E+00
 -0.1005140E+02  0.9899730E+00 -0.1027320E+00  0.8002711E+00  0.1822358E+01  0.1992011E+00 -0.7750824E+00
 -0.1010000E+02 -0.8829700E-06 -0.1027320E+00  0.8051468E+00  0.1822214E+01  0.2003020E+00 -0.7798336E+00
 -0.1005140E+02 -0.9899740E+00 -0.1027320E+00  0.8002712E+00  0.1822358E+01  0.1992010E+00 -0.7750825E+00
 -0.9905930E+01 -0.1970410E+01 -0.1027320E+00  0.7878893E+00  0.1822477E+01  0.1962095E+00 -0.7630671E+00
 -0.9665100E+01 -0.2931880E+01 -0.1027320E+00  0.7694213E+00  0.1822372E+01  0.1915324E+00 -0.7452010E+00
 -0.9331180E+01 -0.3865100E+01 -0.1027320E+00  0.7438582E+00  0.1822213E+01  0.1850543E+00 -0.7204720E+00
 -0.8907400E+01 -0.4761110E+01 -0.1027320E+00  0.7092944E+00  0.1822341E+01  0.1765435E+00 -0.6869723E+00
 -0.8397840E+01 -0.5611260E+01 -0.1027320E+00  0.6679367E+00  0.1822477E+01  0.1663377E+00 -0.6468935E+00
 -0.7807400E+01 -0.6407370E+01 -0.1027320E+00  0.6214323E+00  0.1822390E+01  0.1547045E+00 -0.6018676E+00
 -0.7141780E+01 -0.7141780E+01 -0.1027320E+00  0.5693254E+00  0.1822213E+01  0.1416349E+00 -0.5514264E+00
 -0.6407370E+01 -0.7807410E+01 -0.1027320E+00  0.5103249E+00  0.1822318E+01  0.1270086E+00 -0.4942674E+00
 -0.5611260E+01 -0.8397850E+01 -0.1027320E+00  0.4463055E+00  0.1822477E+01  0.1111445E+00 -0.4322447E+00
 -0.4761110E+01 -0.8907410E+01 -0.1027320E+00  0.3788323E+00  0.1822430E+01  0.9432421E-01 -0.3669016E+00
 -0.3865100E+01 -0.9331190E+01 -0.1027320E+00  0.3081152E+00  0.1822216E+01  0.7665259E-01 -0.2984281E+00
 -0.2931870E+01 -0.9665100E+01 -0.1027320E+00  0.2336698E+00  0.1822242E+01  0.5813811E-01 -0.2263217E+00
 -0.1970410E+01 -0.9905930E+01 -0.1027320E+00  0.1567145E+00  0.1822483E+01  0.3902786E-01 -0.1517770E+00
 -0.9899710E+00 -0.1005140E+02 -0.1027320E+00  0.7856052E-01  0.1822744E+01  0.1958439E-01 -0.7608027E-01
  0.1204410E-06 -0.1010000E+02 -0.1027320E+00  0.5808553E-06  0.2515477E+01  0.4706729E-06 -0.3403820E-06
  0.9899760E+00 -0.1005140E+02 -0.1027320E+00  0.7856022E-01 -0.1318861E+01 -0.1958340E-01  0.7608021E-01
  0.1970410E+01 -0.9905930E+01 -0.1027320E+00  0.1567137E+00 -0.1319113E+01 -0.3902711E-01  0.1517764E+00
  0.2931880E+01 -0.9665100E+01 -0.1027320E+00  0.2336699E+00 -0.1319355E+01 -0.5813703E-01  0.2263221E+00
  0.3865100E+01 -0.9331180E+01 -0.1027320E+00  0.3081144E+00 -0.1319380E+01 -0.7665135E-01  0.2984277E+00
  0.4761110E+01 -0.8907410E+01 -0.1027320E+00  0.3788312E+00 -0.1319165E+01 -0.9432308E-01  0.3669008E+00
  0.5611260E+01 -0.8397840E+01 -0.1027320E+00  0.4463053E+00 -0.1319118E+01 -0.1111434E+00  0.4322448E+00
  0.6407370E+01 -0.7807410E+01 -0.1027320E+00  0.5103239E+00 -0.1319277E+01 -0.1270072E+00  0.4942668E+00
  0.7141780E+01 -0.7141780E+01 -0.1027320E+00  0.5693246E+00 -0.1319381E+01 -0.1416338E+00  0.5514257E+00
  0.7807410E+01 -0.6407370E+01 -0.1027320E+00  0.6214311E+00 -0.1319204E+01 -0.1547032E+00  0.6018667E+00
  0.8397840E+01 -0.5611260E+01 -0.1027320E+00  0.6679366E+00 -0.1319116E+01 -0.1663372E+00  0.6468936E+00
  0.8907410E+01 -0.4761110E+01 -0.1027320E+00  0.7092931E+00 -0.1319253E+01 -0.1765425E+00  0.6869712E+00
  0.9331180E+01 -0.3865100E+01 -0.1027320E+00  0.7438563E+00 -0.1319380E+01 -0.1850535E+00  0.7204702E+00
  0.9665100E+01 -0.2931870E+01 -0.1027320E+00  0.7694218E+00 -0.1319222E+01 -0.1915312E+00  0.7452018E+00
  0.9905930E+01 -0.1970410E+01 -0.1027320E+00  0.7878891E+00 -0.1319117E+01 -0.1962090E+00  0.7630671E+00
  0.1005140E+02 -0.9899690E+00 -0.1027320E+00  0.8002708E+00 -0.1319236E+01 -0.1992000E+00  0.7750824E+00
  0.1010000E+02  0.0000000E+00 -0.2310450E+00  0.8001754E+00 -0.1319481E+01 -0.1989857E+00  0.7750389E+00
  0.1005140E+02  0.9899730E+00 -0.2310450E+00  0.7953687E+00 -0.1319343E+01 -0.1978970E+00  0.7703558E+00
  0.9905930E+01  0.1970410E+01 -0.2310450E+00  0.7831221E+00 -0.1319233E+01 -0.1949331E+00  0.7584730E+00
  0.9665100E+01  0.2931880E+01 -0.2310450E+00  0.7647085E+00 -0.1319329E+01 -0.1902790E+00  0.7406572E+00
  0.9331180E+01  0.3865100E+01 -0.2310450E+00  0.7392640E+00 -0.1319481E+01 -0.1838390E+00  0.7160408E+00
  0.8907400E+01  0.4761110E+01 -0.2310450E+00  0.7049484E+00 -0.1319360E+01 -0.1753878E+00  0.6827821E+00
  0.8397840E+01  0.5611260E+01 -0.2310450E+00  0.6638958E+00 -0.1319233E+01 -0.1652559E+00  0.6429994E+00
  0.7807410E+01  0.6407370E+01 -0.2310450E+00  0.6176254E+00 -0.1319310E+01 -0.1536920E+00  0.5981972E+00
  0.7141780E+01  0.7141780E+01 -0.2310450E+00  0.5658097E+00 -0.1319481E+01 -0.1407043E+00  0.5480355E+00
  0.6407370E+01  0.7807410E+01 -0.2310450E+00  0.5071969E+00 -0.1319384E+01 -0.1261764E+00  0.4912517E+00
  0.5611260E+01  0.8397840E+01 -0.2310450E+00  0.4436058E+00 -0.1319235E+01 -0.1104209E+00  0.4296433E+00
  0.4761110E+01  0.8907410E+01 -0.2310450E+00  0.3765122E+00 -0.1319271E+01 -0.9370682E-01  0.3646649E+00
  0.3865100E+01  0.9331180E+01 -0.2310450E+00  0.3062123E+00 -0.1319481E+01 -0.7614821E-01  0.2965930E+00
  0.2931870E+01  0.9665100E+01 -0.2310450E+00  0.2322370E+00 -0.1319462E+01 -0.5775653E-01  0.2249404E+00
  0.1970410E+01  0.9905930E+01 -0.2310450E+00  0.1557659E+00 -0.1319232E+01 -0.3877315E-01  0.1508631E+00
  0.9899730E+00  0.1005140E+02 -0.2310450E+00  0.7808021E-01 -0.1318973E+01 -0.1945524E-01  0.7561754E-01
 -0.4414850E-06  0.1010000E+02 -0.2310450E+00  0.4907282E-06  0.3122010E+01  0.4906341E-06 -0.9609203E-08
 -0.9899740E+00  0.1005140E+02 -0.2310450E+00  0.7808062E-01  0.1822633E+01  0.1945639E-01 -0.7561767E-01
 -0.1970410E+01  0.9905930E+01 -0.2310450E+00  0.1557663E+00  0.1822367E+01  0.3877425E-01 -0.1508632E+00
 -0.2931880E+01  0.9665100E+01 -0.2310450E+00  0.2322378E+00  0.1822134E+01  0.5775758E-01 -0.2249410E+00
 -0.3865100E+01  0.9331180E+01 -0.2310450E+00  0.3062126E+00  0.1822113E+01  0.7614891E-01 -0.2965932E+00
 -0.4761110E+01  0.8907400E+01 -0.2310450E+00  0.3765128E+00  0.1822323E+01  0.9370770E-01 -0.3646652E+00
 -0.5611260E+01  0.8397840E+01 -0.2310450E+00  0.4436064E+00  0.1822359E+01  0.1104217E+00 -0.4296437E+00
 -0.6407370E+01  0.7807410E+01 -0.2310450E+00  0.5071974E+00  0.1822210E+01  0.1261774E+00 -0.4912520E+00
 -0.7141780E+01  0.7141780E+01 -0.2310450E+00  0.5658101E+00  0.1822112E+01  0.1407050E+00 -0.5480358E+00
 -0.7807410E+01  0.6407370E+01 -0.2310450E+00  0.6176262E+00  0.1822283E+01  0.1536929E+00 -0.5981978E+00
 -0.8397840E+01  0.5611260E+01 -0.2310450E+00  0.6638956E+00  0.1822361E+01  0.1652570E+00 -0.6429988E+00
 -0.8907410E+01  0.4761110E+01 -0.2310450E+00  0.7049490E+00  0.1822234E+01  0.1753890E+00 -0.6827824E+00
 -0.9331180E+01  0.3865100E+01 -0.2310450E+00  0.7392648E+00  0.1822112E+01  0.1838395E+00 -0.7160416E+00
 -0.9665100E+01  0.2931880E+01 -0.2310450E+00  0.7647084E+00  0.1822265E+01  0.1902796E+00 -0.7406569E+00
 -0.9905930E+01  0.1970410E+01 -0.2310450E+00  0.7831230E+00  0.1822360E+01  0.1949339E+00 -0.7584738E+00
 -0.1005140E+02  0.9899730E+00 -0.2310450E+00  0.7953686E+00  0.1822251E+01  0.1978979E+00 -0.7703555E+00
 -0.1010000E+02 -0.8829700E-06 -0.2310450E+00  0.8001748E+00  0.1822113E+01  0.1989869E+00 -0.7750381E+00
 -0.1005140E+02 -0.9899740E+00 -0.2310450E+00  0.7953694E+00  0.1822251E+01  0.1978983E+00 -0.7703563E+00
 -0.9905930E+01 -0.1970410E+01 -0.2310450E+00  0.7831232E+00  0.1822360E+01  0.1949338E+00 -0.7584740E+00
 -0.9665100E+01 -0.2931880E+01 -0.2310450E+00  0.7647094E+00  0.1822265E+01  0.1902799E+00 -0.7406577E+00
 -0.9331180E+01 -0.3865100E+01 -0.2310450E+00  0.7392656E+00  0.1822112E+01  0.1838396E+00 -0.7160423E+00
 -0.8907400E+01 -0.4761110E+01 -0.2310450E+00  0.7049490E+00  0.1822234E+01  0.1753888E+00 -0.6827825E+00
 -0.8397840E+01 -0.5611260E+01 -0.2310450E+00  0.6638954E+00  0.1822361E+01  0.1652564E+00 -0.6429988E+00
 -0.7807400E+01 -0.6407370E+01 -0.2310450E+00  0.6176265E+00  0.1822283E+01  0.1536928E+00 -0.5981982E+00
 -0.7141780E+01 -0.7141780E+01 -0.2310450E+00  0.5658100E+00  0.1822112E+01  0.1407047E+00 -0.5480357E+00
 -0.6407370E+01 -0.7807410E+01 -0.2310450E+00  0.5071975E+00  0.1822210E+01  0.1261771E+00 -0.4912521E+00
 -0.5611260E+01 -0.8397850E+01 -0.2310450E+00  0.4436055E+00  0.1822361E+01  0.1104221E+00 -0.4296427E+00
 -0.4761110E+01 -0.8907410E+01 -0.2310450E+00  0.3765129E+00  0.1822323E+01  0.9370766E-01 -0.3646654E+00
 -0.3865100E+01 -0.9331190E+01 -0.2310450E+00  0.3062120E+00  0.1822113E+01  0.7614877E-01 -0.2965926E+00
 -0.2931870E+01 -0.9665100E+01 -0.2310450E+00  0.2322374E+00  0.1822135E+01  0.5775752E-01 -0.2249406E+00
 -0.1970410E+01 -0.9905930E+01 -0.2310450E+00  0.1557664E+00  0.1822366E+01  0.3877413E-01 -0.1508633E+00
 -0.9899710E+00 -0.1005140E+02 -0.2310450E+00  0.7808053E-01  0.1822632E+01  0.1945631E-01 -0.7561760E-01
  0.1204410E-06 -0.1010000E+02 -0.2310450E+00  0.5523045E-06  0.2705295E+01  0.5005660E-06 -0.2333965E-06
  0.9899760E+00 -0.1005140E+02 -0.2310450E+00  0.7808024E-01 -0.1318970E+01 -0.1945546E-01  0.7561752E-01
  0.1970410E+01 -0.9905930E+01 -0.2310450E+00  0.1557656E+00 -0.1319232E+01 -0.3877313E-01  0.1508627E+00
  0.2931880E+01 -0.9665100E+01 -0.2310450E+00  0.2322373E+00 -0.1319462E+01 -0.5775663E-01  0.2249408E+00
  0.3865100E+01 -0.9331180E+01 -0.2310450E+00  0.3062120E+00 -0.1319483E+01 -0.7614777E-01  0.2965928E+00
  0.4761110E+01 -0.8907410E+01 -0.2310450E+00  0.3765120E+00 -0.1319272E+01 -0.9370659E-01  0.3646647E+00
  0.5611260E+01 -0.8397840E+01 -0.2310450E+00  0.4436051E+00 -0.1319234E+01 -0.1104208E+00  0.4296426E+00
  0.6407370E+01 -0.7807410E+01 -0.2310450E+00  0.5071969E+00 -0.1319385E+01 -0.1261761E+00  0.4912518E+00
  0.7141780E+01 -0.7141780E+01 -0.2310450E+00  0.5658094E+00 -0.1319482E+01 -0.1407041E+00  0.5480353E+00
  0.7807410E+01 -0.6407370E+01 -0.2310450E+00  0.6176256E+00 -0.1319310E+01 -0.1536921E+00  0.5981974E+00
  0.8397840E+01 -0.5611260E+01 -0.2310450E+00  0.6638953E+00 -0.1319233E+01 -0.1652559E+00  0.6429988E+00
  0.8907410E+01 -0.4761110E+01 -0.2310450E+00  0.7049477E+00 -0.1319360E+01 -0.1753877E+00  0.6827814E+00
  0.9331180E+01 -0.3865100E+01 -0.2310450E+00  0.7392637E+00 -0.1319481E+01 -0.1838389E+00  0.7160406E+00
  0.9665100E+01 -0.2931870E+01 -0.2310450E+00  0.7647087E+00 -0.1319329E+01 -0.1902787E+00  0.7406574E+00
  0.9905930E+01 -0.1970410E+01 -0.2310450E+00  0.7831218E+00 -0.1319234E+01 -0.1949329E+00  0.7584727E+00
  0.1005140E+02 -0.9899690E+00 -0.2310450E+00  0.7953681E+00 -0.1319343E+01 -0.1978972E+00  0.7703552E+00
  0.1010000E+02  0.0000000E+00 -0.4105000E+00  0.7931567E+00 -0.1319641E+01 -0.1971176E+00  0.7682723E+00
  0.1005140E+02  0.9899730E+00 -0.4105000E+00  0.7886070E+00 -0.1319534E+01 -0.1960686E+00  0.7638443E+00
  0.9905930E+01  0.1970410E+01 -0.4105000E+00  0.7765607E+00 -0.1319440E+01 -0.1931445E+00  0.7521580E+00
  0.9665100E+01  0.2931880E+01 -0.4105000E+00  0.7582061E+00 -0.1319520E+01 -0.1885204E+00  0.7343954E+00
  0.9331180E+01  0.3865100E+01 -0.4105000E+00  0.7327803E+00 -0.1319641E+01 -0.1821129E+00  0.7097900E+00
  0.8907400E+01  0.4761110E+01 -0.4105000E+00  0.6989579E+00 -0.1319552E+01 -0.1737674E+00  0.6770133E+00
  0.8397840E+01  0.5611260E+01 -0.4105000E+00  0.6583328E+00 -0.1319440E+01 -0.1637394E+00  0.6376452E+00
  0.7807410E+01  0.6407370E+01 -0.4105000E+00  0.6123722E+00 -0.1319501E+01 -0.1522716E+00  0.5931383E+00
  0.7141780E+01  0.7141780E+01 -0.4105000E+00  0.5608470E+00 -0.1319642E+01 -0.1393831E+00  0.5432510E+00
  0.6407370E+01  0.7807410E+01 -0.4105000E+00  0.5028902E+00 -0.1319577E+01 -0.1250108E+00  0.4871046E+00
  0.5611260E+01  0.8397840E+01 -0.4105000E+00  0.4398886E+00 -0.1319441E+01 -0.1094077E+00  0.4260657E+00
  0.4761110E+01  0.8907410E+01 -0.4105000E+00  0.3733066E+00 -0.1319461E+01 -0.9284057E-01  0.3615777E+00
  0.3865100E+01  0.9331180E+01 -0.4105000E+00  0.3035266E+00 -0.1319643E+01 -0.7543293E-01  0.2940039E+00
  0.2931870E+01  0.9665100E+01 -0.4105000E+00  0.2302680E+00 -0.1319657E+01 -0.5722336E-01  0.2230445E+00
  0.1970410E+01  0.9905930E+01 -0.4105000E+00  0.1544606E+00 -0.1319437E+01 -0.3841750E-01  0.1496067E+00
  0.9899730E+00  0.1005140E+02 -0.4105000E+00  0.7741080E-01 -0.1319151E+01 -0.1927510E-01  0.7497268E-01
 -0.4414850E-06  0.1010000E+02 -0.4105000E+00  0.3908681E-06  0.2968432E+01  0.3850228E-06 -0.6734506E-07
 -0.9899740E+00  0.1005140E+02 -0.4105000E+00  0.7741121E-01  0.1822454E+01  0.1927615E-01 -0.7497283E-01
 -0.1970410E+01  0.9905930E+01 -0.4105000E+00  0.1544609E+00  0.1822162E+01  0.3841851E-01 -0.1496067E+00
 -0.2931880E+01  0.9665100E+01 -0.4105000E+00  0.2302692E+00  0.1821939E+01  0.5722443E-01 -0.2230454E+00
 -0.3865100E+01  0.9331180E+01 -0.4105000E+00  0.3035271E+00  0.1821953E+01  0.7543405E-01 -0.2940041E+00
 -0.4761110E+01  0.8907400E+01 -0.4105000E+00  0.3733074E+00  0.1822133E+01  0.9284127E-01 -0.3615784E+00
 -0.5611260E+01  0.8397840E+01 -0.4105000E+00  0.4398890E+00  0.1822153E+01  0.1094085E+00 -0.4260658E+00
 -0.6407370E+01  0.7807410E+01 -0.4105000E+00  0.5028902E+00  0.1822017E+01  0.1250117E+00 -0.4871043E+00
 -0.7141780E+01  0.7141780E+01 -0.4105000E+00  0.5608476E+00  0.1821953E+01  0.1393842E+00 -0.5432514E+00