 VARIABLES="X" "Y" "Z" "abs(eta) (m)" "angle(phi) (rad)" "PRE1" "PRE2"
ZONE N=   3200 ,E =    3136 ,F=FEPOINT,ET=QUADRILATERAL
  0.1100000E+02  0.0000000E+00  0.0000000E+00  0.1621785E+00  0.2353095E+01  0.1143215E+00 -0.1150324E+00
  0.1094700E+02  0.1078190E+01  0.0000000E+00  0.1763034E+00  0.2323129E+01  0.1204758E+00 -0.1287186E+00
  0.1078860E+02  0.2145990E+01  0.0000000E+00  0.1886982E+00  0.2301839E+01  0.1259836E+00 -0.1404818E+00
  0.1052630E+02  0.3193130E+01  0.0000000E+00  0.1981070E+00  0.2289487E+01  0.1304337E+00 -0.1491089E+00
  0.1016270E+02  0.4209520E+01  0.0000000E+00  0.2051801E+00  0.2281400E+01  0.1338372E+00 -0.1555201E+00
  0.9701130E+01  0.5185360E+01  0.0000000E+00  0.2103925E+00  0.2275231E+01  0.1362509E+00 -0.1603143E+00
  0.9146170E+01  0.6111270E+01  0.0000000E+00  0.2131935E+00  0.2271719E+01  0.1374934E+00 -0.1629326E+00
  0.8503110E+01  0.6978330E+01  0.0000000E+00  0.2124812E+00  0.2273080E+01  0.1372549E+00 -0.1622016E+00
  0.7778170E+01  0.7778170E+01  0.0000000E+00  0.2093090E+00  0.2276837E+01  0.1358051E+00 -0.1592709E+00
  0.6978330E+01  0.8503110E+01  0.0000000E+00  0.2042213E+00  0.2282035E+01  0.1333101E+00 -0.1547087E+00
  0.6111270E+01  0.9146170E+01  0.0000000E+00  0.1967215E+00  0.2290615E+01  0.1296883E+00 -0.1479200E+00
  0.5185360E+01  0.9701130E+01  0.0000000E+00  0.1860531E+00  0.2306577E+01  0.1248725E+00 -0.1379225E+00
  0.4209520E+01  0.1016270E+02  0.0000000E+00  0.1734464E+00  0.2329036E+01  0.1192694E+00 -0.1259303E+00
  0.3193130E+01  0.1052630E+02  0.0000000E+00  0.1594568E+00  0.2359096E+01  0.1130797E+00 -0.1124253E+00
  0.2145990E+01  0.1078860E+02  0.0000000E+00  0.1438576E+00  0.2402829E+01  0.1063542E+00 -0.9687004E-01
  0.1078190E+01  0.1094700E+02  0.0000000E+00  0.1266670E+00  0.2471610E+01  0.9928574E-01 -0.7865673E-01
 -0.4808250E-06  0.1100000E+02  0.0000000E+00  0.1094449E+00  0.2572978E+01  0.9222350E-01 -0.5893227E-01
 -0.1078190E+01  0.1094700E+02  0.0000000E+00  0.9340954E-01  0.2722064E+01  0.8530918E-01 -0.3804847E-01
 -0.2145990E+01  0.1078860E+02  0.0000000E+00  0.8023139E-01  0.2945222E+01  0.7868944E-01 -0.1565401E-01
 -0.3193130E+01  0.1052630E+02  0.0000000E+00  0.7316259E-01 -0.3027218E+01  0.7268457E-01  0.8349710E-02
 -0.4209520E+01  0.1016270E+02  0.0000000E+00  0.7507807E-01 -0.2686061E+01  0.6742214E-01  0.3302985E-01
 -0.5185370E+01  0.9701130E+01  0.0000000E+00  0.8571269E-01 -0.2395069E+01  0.6291776E-01  0.5820671E-01
 -0.6111270E+01  0.9146160E+01  0.0000000E+00  0.1028163E+00 -0.2185744E+01  0.5931634E-01  0.8398067E-01
 -0.6978330E+01  0.8503120E+01  0.0000000E+00  0.1237513E+00 -0.2048227E+01  0.5686359E-01  0.1099132E+00
 -0.7778170E+01  0.7778170E+01  0.0000000E+00  0.1463632E+00 -0.1959133E+01  0.5542033E-01  0.1354650E+00
 -0.8503120E+01  0.6978330E+01  0.0000000E+00  0.1697951E+00 -0.1899915E+01  0.5487939E-01  0.1606817E+00
 -0.9146170E+01  0.6111270E+01  0.0000000E+00  0.1934949E+00 -0.1860589E+01  0.5529190E-01  0.1854268E+00
 -0.9701130E+01  0.5185360E+01  0.0000000E+00  0.2163948E+00 -0.1835823E+01  0.5668144E-01  0.2088394E+00
 -0.1016270E+02  0.4209520E+01  0.0000000E+00  0.2382573E+00 -0.1819965E+01  0.5875392E-01  0.2308993E+00
 -0.1052630E+02  0.3193130E+01  0.0000000E+00  0.2592726E+00 -0.1809720E+01  0.6135860E-01  0.2519076E+00
 -0.1078860E+02  0.2145990E+01  0.0000000E+00  0.2790827E+00 -0.1803749E+01  0.6442679E-01  0.2715444E+00
 -0.1094700E+02  0.1078190E+01  0.0000000E+00  0.2965408E+00 -0.1801324E+01  0.6775698E-01  0.2886961E+00
 -0.1100000E+02 -0.9616510E-06  0.0000000E+00  0.3120801E+00 -0.1800642E+01  0.7110050E-01  0.3038728E+00
 -0.1094700E+02 -0.1078190E+01  0.0000000E+00  0.3261688E+00 -0.1800808E+01  0.7436280E-01  0.3175788E+00
 -0.1078860E+02 -0.2146000E+01  0.0000000E+00  0.3383322E+00 -0.1801622E+01  0.7740413E-01  0.3293589E+00
 -0.1052630E+02 -0.3193130E+01  0.0000000E+00  0.3473268E+00 -0.1803004E+01  0.7992924E-01  0.3380048E+00
 -0.1016270E+02 -0.4209520E+01  0.0000000E+00  0.3540306E+00 -0.1804214E+01  0.8188868E-01  0.3444299E+00
 -0.9701130E+01 -0.5185360E+01  0.0000000E+00  0.3590292E+00 -0.1804951E+01  0.8330230E-01  0.3492315E+00
 -0.9146160E+01 -0.6111270E+01  0.0000000E+00  0.3617494E+00 -0.1805258E+01  0.8404139E-01  0.3518517E+00
 -0.8503110E+01 -0.6978330E+01  0.0000000E+00  0.3610056E+00 -0.1805331E+01  0.8389435E-01  0.3511221E+00
 -0.7778170E+01 -0.7778180E+01  0.0000000E+00  0.3579520E+00 -0.1804910E+01  0.8303817E-01  0.3481871E+00
 -0.6978330E+01 -0.8503110E+01  0.0000000E+00  0.3531677E+00 -0.1803918E+01  0.8158731E-01  0.3436145E+00
 -0.6111270E+01 -0.9146170E+01  0.0000000E+00  0.3460661E+00 -0.1802595E+01  0.7950117E-01  0.3368106E+00
 -0.5185360E+01 -0.9701130E+01  0.0000000E+00  0.3356969E+00 -0.1801559E+01  0.7678048E-01  0.3267983E+00
 -0.4209510E+01 -0.1016270E+02  0.0000000E+00  0.3233042E+00 -0.1800833E+01  0.7371767E-01  0.3147877E+00
 -0.3193130E+01 -0.1052630E+02  0.0000000E+00  0.3093890E+00 -0.1800543E+01  0.7045757E-01  0.3012595E+00
 -0.2145990E+01 -0.1078860E+02  0.0000000E+00  0.2934474E+00 -0.1801406E+01  0.6707347E-01  0.2856791E+00
 -0.1078190E+01 -0.1094700E+02  0.0000000E+00  0.2749451E+00 -0.1804916E+01  0.6378350E-01  0.2674444E+00
  0.1311740E-06 -0.1100000E+02  0.0000000E+00  0.2550569E+00 -0.1811580E+01  0.6082194E-01  0.2476989E+00
  0.1078190E+01 -0.1094700E+02  0.0000000E+00  0.2341596E+00 -0.1822314E+01  0.5827635E-01  0.2267919E+00
  0.2145990E+01 -0.1078860E+02  0.0000000E+00  0.2119870E+00 -0.1839577E+01  0.5629453E-01  0.2043757E+00
  0.3193140E+01 -0.1052630E+02  0.0000000E+00  0.1886095E+00 -0.1867684E+01  0.5517690E-01  0.1803581E+00
  0.4209520E+01 -0.1016270E+02  0.0000000E+00  0.1650813E+00 -0.1910142E+01  0.5495063E-01  0.1556672E+00
  0.5185360E+01 -0.9701130E+01  0.0000000E+00  0.1418285E+00 -0.1973543E+01  0.5558924E-01  0.1304805E+00
  0.6111270E+01 -0.9146160E+01  0.0000000E+00  0.1193135E+00 -0.2070934E+01  0.5721637E-01  0.1046995E+00
  0.6978330E+01 -0.8503110E+01  0.0000000E+00  0.9902804E-01 -0.2221877E+01  0.6001555E-01  0.7876983E-01
  0.7778180E+01 -0.7778170E+01  0.0000000E+00  0.8306896E-01 -0.2446141E+01  0.6377739E-01  0.5322496E-01
  0.8503120E+01 -0.6978320E+01  0.0000000E+00  0.7388792E-01 -0.2752698E+01  0.6837063E-01  0.2801575E-01
  0.9146170E+01 -0.6111270E+01  0.0000000E+00  0.7387941E-01 -0.3097158E+01  0.7380649E-01  0.3281729E-02
  0.9701130E+01 -0.5185360E+01  0.0000000E+00  0.8250173E-01  0.2895343E+01  0.8001293E-01 -0.2011135E-01
  0.1016270E+02 -0.4209520E+01  0.0000000E+00  0.9637380E-01  0.2688935E+01  0.8666781E-01 -0.4214974E-01
  0.1052630E+02 -0.3193130E+01  0.0000000E+00  0.1129175E+00  0.2548229E+01  0.9361592E-01 -0.6313808E-01
  0.1078860E+02 -0.2145990E+01  0.0000000E+00  0.1303701E+00  0.2453890E+01  0.1007378E+00 -0.8275414E-01
  0.1094700E+02 -0.1078180E+01  0.0000000E+00  0.1468978E+00  0.2393926E+01  0.1077169E+00 -0.9988013E-01
  0.1100000E+02  0.0000000E+00 -0.2568960E-01  0.1620443E+00  0.2353040E+01  0.1142206E+00 -0.1149436E+00
  0.1094700E+02  0.1078190E+01 -0.2568960E-01  0.1761479E+00  0.2323121E+01  0.1203686E+00 -0.1286060E+00
  0.1078860E+02  0.2145990E+01 -0.2568960E-01  0.1885170E+00  0.2301878E+01  0.1258681E+00 -0.1403420E+00
  0.1052630E+02  0.3193130E+01 -0.2568960E-01  0.1979304E+00  0.2289483E+01  0.1303167E+00 -0.1489765E+00
  0.1016270E+02  0.4209520E+01 -0.2568960E-01  0.2050107E+00  0.2281363E+01  0.1337210E+00 -0.1553966E+00
  0.9701130E+01  0.5185360E+01 -0.2568960E-01  0.2102059E+00  0.2275227E+01  0.1361293E+00 -0.1601728E+00
  0.9146170E+01  0.6111270E+01 -0.2568960E-01  0.2129890E+00  0.2271753E+01  0.1373670E+00 -0.1627717E+00
  0.8503110E+01  0.6978330E+01 -0.2568960E-01  0.2122924E+00  0.2273076E+01  0.1371323E+00 -0.1620580E+00
  0.7778170E+01  0.7778170E+01 -0.2568960E-01  0.2091361E+00  0.2276801E+01  0.1356872E+00 -0.1591443E+00
  0.6978330E+01  0.8503110E+01 -0.2568960E-01  0.2040394E+00  0.2282029E+01  0.1331905E+00 -0.1545716E+00
  0.6111270E+01  0.9146170E+01 -0.2568960E-01  0.1965328E+00  0.2290649E+01  0.1295689E+00 -0.1477737E+00
  0.5185360E+01  0.9701130E+01 -0.2568960E-01  0.1858889E+00  0.2306570E+01  0.1247614E+00 -0.1378016E+00
  0.4209520E+01  0.1016270E+02 -0.2568960E-01  0.1733031E+00  0.2328987E+01  0.1191647E+00 -0.1258322E+00
  0.3193130E+01  0.1052630E+02 -0.2568960E-01  0.1593144E+00  0.2359088E+01  0.1129777E+00 -0.1123259E+00
  0.2145990E+01  0.1078860E+02 -0.2568960E-01  0.1437210E+00  0.2402876E+01  0.1062577E+00 -0.9677309E-01
  0.1078190E+01  0.1094700E+02 -0.2568960E-01  0.1265562E+00  0.2471588E+01  0.9919713E-01 -0.7859014E-01
 -0.4808250E-06  0.1100000E+02 -0.2568960E-01  0.1093524E+00  0.2572886E+01  0.9214015E-01 -0.5889102E-01
 -0.1078190E+01  0.1094700E+02 -0.2568960E-01  0.9332556E-01  0.2722045E+01  0.8523176E-01 -0.3801588E-01
 -0.2145990E+01  0.1078860E+02 -0.2568960E-01  0.8015914E-01  0.2945279E+01  0.7861946E-01 -0.1563548E-01
 -0.3193130E+01  0.1052630E+02 -0.2568960E-01  0.7309619E-01 -0.3027284E+01  0.7261915E-01  0.8337353E-02
 -0.4209520E+01  0.1016270E+02 -0.2568960E-01  0.7500513E-01 -0.2686125E+01  0.6735877E-01  0.3299342E-01
 -0.5185370E+01  0.9701130E+01 -0.2568960E-01  0.8563412E-01 -0.2395074E+01  0.6286035E-01  0.5815307E-01
 -0.6111270E+01  0.9146160E+01 -0.2568960E-01  0.1027228E+00 -0.2185774E+01  0.5926494E-01  0.8390262E-01
 -0.6978330E+01  0.8503120E+01 -0.2568960E-01  0.1236353E+00 -0.2048242E+01  0.5681191E-01  0.1098094E+00
 -0.7778170E+01  0.7778170E+01 -0.2568960E-01  0.1462294E+00 -0.1959116E+01  0.5536738E-01  0.1353421E+00
 -0.8503120E+01  0.6978330E+01 -0.2568960E-01  0.1696411E+00 -0.1899917E+01  0.5482996E-01  0.1605359E+00
 -0.9146170E+01  0.6111270E+01 -0.2568960E-01  0.1933124E+00 -0.1860613E+01  0.5524408E-01  0.1852506E+00
 -0.9701130E+01  0.5185360E+01 -0.2568960E-01  0.2161950E+00 -0.1835827E+01  0.5662989E-01  0.2086464E+00
 -0.1016270E+02  0.4209520E+01 -0.2568960E-01  0.2380468E+00 -0.1819956E+01  0.5869979E-01  0.2306959E+00
 -0.1052630E+02  0.3193130E+01 -0.2568960E-01  0.2590376E+00 -0.1809724E+01  0.6130418E-01  0.2516789E+00
 -0.1078860E+02  0.2145990E+01 -0.2568960E-01  0.2788172E+00 -0.1803765E+01  0.6436968E-01  0.2712850E+00
 -0.1094700E+02  0.1078190E+01 -0.2568960E-01  0.2962692E+00 -0.1801329E+01  0.6769627E-01  0.2884313E+00
 -0.1100000E+02 -0.9616510E-06 -0.2568960E-01  0.3118075E+00 -0.1800641E+01  0.7103796E-01  0.3036075E+00
 -0.1094700E+02 -0.1078190E+01 -0.2568960E-01  0.3258730E+00 -0.1800814E+01  0.7429737E-01  0.3172902E+00
 -0.1078860E+02 -0.2146000E+01 -0.2568960E-01  0.3380089E+00 -0.1801635E+01  0.7733428E-01  0.3290432E+00
 -0.1052630E+02 -0.3193130E+01 -0.2568960E-01  0.3470100E+00 -0.1803010E+01  0.7985833E-01  0.3376960E+00
 -0.1016270E+02 -0.4209520E+01 -0.2568960E-01  0.3537230E+00 -0.1804217E+01  0.8181860E-01  0.3441303E+00
 -0.9701130E+01 -0.5185360E+01 -0.2568960E-01  0.3587028E+00 -0.1804958E+01  0.8322898E-01  0.3489135E+00
 -0.9146160E+01 -0.6111270E+01 -0.2568960E-01  0.3614033E+00 -0.1805269E+01  0.8396497E-01  0.3515142E+00
 -0.8503110E+01 -0.6978330E+01 -0.2568960E-01  0.3606768E+00 -0.1805339E+01  0.8382054E-01  0.3508018E+00
 -0.7778170E+01 -0.7778180E+01 -0.2568960E-01  0.3576411E+00 -0.1804913E+01  0.8296702E-01  0.3478845E+00
 -0.6978330E+01 -0.8503110E+01 -0.2568960E-01  0.3528463E+00 -0.1803924E+01  0.8151510E-01  0.3433013E+00
 -0.6111270E+01 -0.9146170E+01 -0.2568960E-01  0.3457354E+00 -0.1802607E+01  0.7942918E-01  0.3364877E+00
 -0.5185360E+01 -0.9701130E+01 -0.2568960E-01  0.3353918E+00 -0.1801566E+01  0.7671311E-01  0.3265008E+00
 -0.4209510E+01 -0.1016270E+02 -0.2568960E-01  0.3230221E+00 -0.1800833E+01  0.7365339E-01  0.3145130E+00
 -0.3193130E+01 -0.1052630E+02 -0.2568960E-01  0.3091061E+00 -0.1800548E+01  0.7039460E-01  0.3009837E+00
 -0.2145990E+01 -0.1078860E+02 -0.2568960E-01  0.2931673E+00 -0.1801420E+01  0.6701365E-01  0.2854054E+00
 -0.1078190E+01 -0.1094700E+02 -0.2568960E-01  0.2746958E+00 -0.1804921E+01  0.6372723E-01  0.2672014E+00
  0.1311740E-06 -0.1100000E+02 -0.2568960E-01  0.2548323E+00 -0.1811573E+01  0.6076660E-01  0.2474811E+00
  0.1078190E+01 -0.1094700E+02 -0.2568960E-01  0.2339441E+00 -0.1822318E+01  0.5822365E-01  0.2265830E+00
  0.2145990E+01 -0.1078860E+02 -0.2568960E-01  0.2117866E+00 -0.1839598E+01  0.5624545E-01  0.2041813E+00
  0.3193140E+01 -0.1052630E+02 -0.2568960E-01  0.1884384E+00 -0.1867687E+01  0.5512737E-01  0.1801943E+00
  0.4209520E+01 -0.1016270E+02 -0.2568960E-01  0.1649322E+00 -0.1910126E+01  0.5489849E-01  0.1555275E+00
  0.5185360E+01 -0.9701130E+01 -0.2568960E-01  0.1416958E+00 -0.1973555E+01  0.5553873E-01  0.1303578E+00
  0.6111270E+01 -0.9146160E+01 -0.2568960E-01  0.1192036E+00 -0.2070963E+01  0.5716675E-01  0.1046015E+00
  0.6978330E+01 -0.8503110E+01 -0.2568960E-01  0.9893736E-01 -0.2221878E+01  0.5996069E-01  0.7869764E-01
  0.7778180E+01 -0.7778170E+01 -0.2568960E-01  0.8298865E-01 -0.2446172E+01  0.6371737E-01  0.5317153E-01
  0.8503120E+01 -0.6978320E+01 -0.2568960E-01  0.7381944E-01 -0.2752760E+01  0.6830897E-01  0.2798560E-01
  0.9146170E+01 -0.6111270E+01 -0.2568960E-01  0.7381424E-01 -0.3097118E+01  0.7374126E-01  0.3281745E-02
  0.9701130E+01 -0.5185360E+01 -0.2568960E-01  0.8242691E-01  0.2895323E+01  0.7993996E-01 -0.2009472E-01
  0.1016270E+02 -0.4209520E+01 -0.2568960E-01  0.9629101E-01  0.2688829E+01  0.8658887E-01 -0.4212273E-01
  0.1052630E+02 -0.3193130E+01 -0.2568960E-01  0.1128187E+00  0.2548199E+01  0.9353211E-01 -0.6308571E-01
  0.1078860E+02 -0.2145990E+01 -0.2568960E-01  0.1302467E+00  0.2453939E+01  0.1006466E+00 -0.8267093E-01
  0.1094700E+02 -0.1078180E+01 -0.2568960E-01  0.1467664E+00  0.2393916E+01  0.1076195E+00 -0.9979196E-01
  0.1100000E+02  0.0000000E+00 -0.1027320E+00  0.1616296E+00  0.2352961E+01  0.1139193E+00 -0.1146583E+00
  0.1094700E+02  0.1078190E+01 -0.1027320E+00  0.1756734E+00  0.2323165E+01  0.1200499E+00 -0.1282542E+00
  0.1078860E+02  0.2145990E+01 -0.1027320E+00  0.1879724E+00  0.2302046E+01  0.1255280E+00 -0.1399154E+00
  0.1052630E+02  0.3193130E+01 -0.1027320E+00  0.1973931E+00  0.2289545E+01  0.1299722E+00 -0.1485640E+00
  0.1016270E+02  0.4209520E+01 -0.1027320E+00  0.2044885E+00  0.2281343E+01  0.1333772E+00 -0.1550035E+00
  0.9701130E+01  0.5185360E+01 -0.1027320E+00  0.2096382E+00  0.2275293E+01  0.1357723E+00 -0.1597311E+00
  0.9146170E+01  0.6111270E+01 -0.1027320E+00  0.2123732E+00  0.2271917E+01  0.1369964E+00 -0.1622786E+00
  0.8503110E+01  0.6978330E+01 -0.1027320E+00  0.2117183E+00  0.2273144E+01  0.1367725E+00 -0.1616104E+00
  0.7778170E+01  0.7778170E+01 -0.1027320E+00  0.2086034E+00  0.2276787E+01  0.1353394E+00 -0.1587408E+00
  0.6978330E+01  0.8503110E+01 -0.1027320E+00  0.2034859E+00  0.2282094E+01  0.1328391E+00 -0.1541438E+00
  0.6111270E+01  0.9146170E+01 -0.1027320E+00  0.1959649E+00  0.2290816E+01  0.1292192E+00 -0.1473250E+00
  0.5185360E+01  0.9701130E+01 -0.1027320E+00  0.1853876E+00  0.2306621E+01  0.1244319E+00 -0.1374237E+00
  0.4209520E+01  0.1016270E+02 -0.1027320E+00  0.1728602E+00  0.2328926E+01  0.1188525E+00 -0.1255178E+00
  0.3193130E+01  0.1052630E+02 -0.1027320E+00  0.1588795E+00  0.2359128E+01  0.1126738E+00 -0.1120147E+00
  0.2145990E+01  0.1078860E+02 -0.1027320E+00  0.1433071E+00  0.2403056E+01  0.1059691E+00 -0.9647522E-01
  0.1078190E+01  0.1094700E+02 -0.1027320E+00  0.1262153E+00  0.2471584E+01  0.9892961E-01 -0.7837874E-01
 -0.4808250E-06  0.1100000E+02 -0.1027320E+00  0.1090660E+00  0.2572701E+01  0.9188790E-01 -0.5875374E-01
 -0.1078190E+01  0.1094700E+02 -0.1027320E+00  0.9306622E-01  0.2722049E+01  0.8499505E-01 -0.3790993E-01
 -0.2145990E+01  0.1078860E+02 -0.1027320E+00  0.7993647E-01  0.2945475E+01  0.7840412E-01 -0.1557667E-01
 -0.3193130E+01  0.1052630E+02 -0.1027320E+00  0.7289105E-01 -0.3027385E+01  0.7241619E-01  0.8306650E-02
 -0.4209520E+01  0.1016270E+02 -0.1027320E+00  0.7478364E-01 -0.2686218E+01  0.6716292E-01  0.3288975E-01
 -0.5185370E+01  0.9701130E+01 -0.1027320E+00  0.8539376E-01 -0.2395015E+01  0.6268048E-01  0.5799354E-01
 -0.6111270E+01  0.9146160E+01 -0.1027320E+00  0.1024384E+00 -0.2185788E+01  0.5910202E-01  0.8366950E-01
 -0.6978330E+01  0.8503120E+01 -0.1027320E+00  0.1232840E+00 -0.2048227E+01  0.5664884E-01  0.1094982E+00
 -0.7778170E+01  0.7778170E+01 -0.1027320E+00  0.1458238E+00 -0.1959035E+01  0.5520291E-01  0.1349711E+00
 -0.8503120E+01  0.6978330E+01 -0.1027320E+00  0.1691721E+00 -0.1899893E+01  0.5467442E-01  0.1600934E+00
 -0.9146170E+01  0.6111270E+01 -0.1027320E+00  0.1927612E+00 -0.1860653E+01  0.5509406E-01  0.1847201E+00
 -0.9701130E+01  0.5185360E+01 -0.1027320E+00  0.2155901E+00 -0.1835825E+01  0.5647108E-01  0.2080628E+00
 -0.1016270E+02  0.4209520E+01 -0.1027320E+00  0.2374046E+00 -0.1819929E+01  0.5853532E-01  0.2300751E+00
 -0.1052630E+02  0.3193130E+01 -0.1027320E+00  0.2583230E+00 -0.1809741E+01  0.6113923E-01  0.2509836E+00
 -0.1078860E+02  0.2145990E+01 -0.1027320E+00  0.2780152E+00 -0.1803817E+01  0.6419858E-01  0.2705013E+00
 -0.1094700E+02  0.1078190E+01 -0.1027320E+00  0.2954454E+00 -0.1801356E+01  0.6751586E-01  0.2876275E+00
 -0.1100000E+02 -0.9616510E-06 -0.1027320E+00  0.3109743E+00 -0.1800659E+01  0.7085369E-01  0.3027950E+00
 -0.1094700E+02 -0.1078190E+01 -0.1027320E+00  0.3249727E+00 -0.1800858E+01  0.7410595E-01  0.3164105E+00
 -0.1078860E+02 -0.2146000E+01 -0.1027320E+00  0.3370337E+00 -0.1801696E+01  0.7713137E-01  0.3280891E+00
 -0.1052630E+02 -0.3193130E+01 -0.1027320E+00  0.3460476E+00 -0.1803059E+01  0.7965314E-01  0.3367555E+00
 -0.1016270E+02 -0.4209520E+01 -0.1027320E+00  0.3527799E+00 -0.1804260E+01  0.8161523E-01  0.3432093E+00
 -0.9701130E+01 -0.5185360E+01 -0.1027320E+00  0.3577103E+00 -0.1805013E+01  0.8301796E-01  0.3479435E+00
 -0.9146160E+01 -0.6111270E+01 -0.1027320E+00  0.3603593E+00 -0.1805336E+01  0.8374576E-01  0.3504932E+00
 -0.8503110E+01 -0.6978330E+01 -0.1027320E+00  0.3596792E+00 -0.1805394E+01  0.8360805E-01  0.3498268E+00
 -0.7778170E+01 -0.7778180E+01 -0.1027320E+00  0.3566878E+00 -0.1804960E+01  0.8276194E-01  0.3469534E+00
 -0.6978330E+01 -0.8503110E+01 -0.1027320E+00  0.3518681E+00 -0.1803975E+01  0.8130649E-01  0.3423454E+00
 -0.6111270E+01 -0.9146170E+01 -0.1027320E+00  0.3447366E+00 -0.1802671E+01  0.7922125E-01  0.3355105E+00
 -0.5185360E+01 -0.9701130E+01 -0.1027320E+00  0.3344652E+00 -0.1801613E+01  0.7651646E-01  0.3255951E+00
 -0.4209510E+01 -0.1016270E+02 -0.1027320E+00  0.3221595E+00 -0.1800858E+01  0.7346450E-01  0.3136714E+00
 -0.3193130E+01 -0.1052630E+02 -0.1027320E+00  0.3082471E+00 -0.1800580E+01  0.7020857E-01  0.3001451E+00
 -0.2145990E+01 -0.1078860E+02 -0.1027320E+00  0.2923236E+00 -0.1801474E+01  0.6683603E-01  0.2845805E+00
 -0.1078190E+01 -0.1094700E+02 -0.1027320E+00  0.2739376E+00 -0.1804945E+01  0.6355753E-01  0.2664625E+00
  0.1311740E-06 -0.1100000E+02 -0.1027320E+00  0.2541467E+00 -0.1811556E+01  0.6059897E-01  0.2468163E+00
  0.1078190E+01 -0.1094700E+02 -0.1027320E+00  0.2332905E+00 -0.1822323E+01  0.5806207E-01  0.2259496E+00
  0.2145990E+01 -0.1078860E+02 -0.1027320E+00  0.2111809E+00 -0.1839641E+01  0.5609332E-01  0.2035950E+00
  0.3193140E+01 -0.1052630E+02 -0.1027320E+00  0.1879181E+00 -0.1867672E+01  0.5497240E-01  0.1796976E+00
  0.4209520E+01 -0.1016270E+02 -0.1027320E+00  0.1644785E+00 -0.1910054E+01  0.5473630E-01  0.1551036E+00
  0.5185360E+01 -0.9701130E+01 -0.1027320E+00  0.1412948E+00 -0.1973536E+01  0.5537916E-01  0.1299899E+00
  0.6111270E+01 -0.9146160E+01 -0.1027320E+00  0.1188705E+00 -0.2070991E+01  0.5700989E-01  0.1043076E+00
  0.6978330E+01 -0.8503110E+01 -0.1027320E+00  0.9866121E-01 -0.2221818E+01  0.5978863E-01  0.7848156E-01
  0.7778180E+01 -0.7778170E+01 -0.1027320E+00  0.8274460E-01 -0.2446173E+01  0.6353008E-01  0.5301507E-01
  0.8503120E+01 -0.6978320E+01 -0.1027320E+00  0.7360923E-01 -0.2752839E+01  0.6811666E-01  0.2790052E-01
  0.9146170E+01 -0.6111270E+01 -0.1027320E+00  0.7361230E-01 -0.3096951E+01  0.7353897E-01  0.3285115E-02
  0.9701130E+01 -0.5185360E+01 -0.1027320E+00  0.8219656E-01  0.2895325E+01  0.7971662E-01 -0.2003838E-01
  0.1016270E+02 -0.4209520E+01 -0.1027320E+00  0.9603445E-01  0.2688608E+01  0.8634888E-01 -0.4202960E-01
  0.1052630E+02 -0.3193130E+01 -0.1027320E+00  0.1125146E+00  0.2548178E+01  0.9327871E-01 -0.6291760E-01
  0.1078860E+02 -0.2145990E+01 -0.1027320E+00  0.1298726E+00  0.2454127E+01  0.1003729E+00 -0.8241465E-01
  0.1094700E+02 -0.1078180E+01 -0.1027320E+00  0.1463653E+00  0.2393949E+01  0.1073286E+00 -0.9951561E-01
  0.1100000E+02  0.0000000E+00 -0.2310450E+00  0.1610158E+00  0.2352408E+01  0.1134235E+00 -0.1142856E+00
  0.1094700E+02  0.1078190E+01 -0.2310450E+00  0.1749643E+00  0.2322850E+01  0.1195251E+00 -0.1277743E+00
  0.1078860E+02  0.2145990E+01 -0.2310450E+00  0.1871484E+00  0.2301960E+01  0.1249658E+00 -0.1393128E+00
  0.1052630E+02  0.3193130E+01 -0.2310450E+00  0.1965901E+00  0.2289281E+01  0.1294043E+00 -0.1479938E+00
  0.1016270E+02  0.4209520E+01 -0.2310450E+00  0.2037182E+00  0.2280937E+01  0.1328122E+00 -0.1544734E+00
  0.9701130E+01  0.5185360E+01 -0.2310450E+00  0.2087895E+00  0.2275050E+01  0.1351839E+00 -0.1591174E+00
  0.9146170E+01  0.6111270E+01 -0.2310450E+00  0.2114421E+00  0.2271847E+01  0.1363846E+00 -0.1615766E+00
  0.8503110E+01  0.6978330E+01 -0.2310450E+00  0.2108609E+00  0.2272902E+01  0.1361797E+00 -0.1609889E+00
  0.7778170E+01  0.7778170E+01 -0.2310450E+00  0.2078178E+00  0.2276392E+01  0.1347671E+00 -0.1581962E+00
  0.6978330E+01  0.8503110E+01 -0.2310450E+00  0.2026590E+00  0.2281841E+01  0.1322605E+00 -0.1535508E+00
  0.6111270E+01  0.9146170E+01 -0.2310450E+00  0.1951059E+00  0.2290737E+01  0.1286412E+00 -0.1466893E+00
  0.5185360E+01  0.9701130E+01 -0.2310450E+00  0.1846394E+00  0.2306329E+01  0.1238898E+00 -0.1369052E+00
  0.4209520E+01  0.1016270E+02 -0.2310450E+00  0.1722057E+00  0.2328418E+01  0.1183391E+00 -0.1251027E+00
  0.3193130E+01  0.1052630E+02 -0.2310450E+00  0.1582281E+00  0.2358783E+01  0.1121734E+00 -0.1115941E+00
  0.2145990E+01  0.1078860E+02 -0.2310450E+00  0.1426788E+00  0.2402932E+01  0.1054926E+00 -0.9606545E-01
  0.1078190E+01  0.1094700E+02 -0.2310450E+00  0.1257015E+00  0.2471097E+01  0.9848881E-01 -0.7810772E-01
 -0.4808250E-06  0.1100000E+02 -0.2310450E+00  0.1086317E+00  0.2571838E+01  0.9147157E-01 -0.5859870E-01
 -0.1078190E+01  0.1094700E+02 -0.2310450E+00  0.9266267E-01  0.2721474E+01  0.8460476E-01 -0.3779424E-01
 -0.2145990E+01  0.1078860E+02 -0.2310450E+00  0.7957835E-01  0.2945223E+01  0.7804896E-01 -0.1552654E-01
 -0.3193130E+01  0.1052630E+02 -0.2310450E+00  0.7254769E-01 -0.3028092E+01  0.7208090E-01  0.8216537E-02
 -0.4209520E+01  0.1016270E+02 -0.2310450E+00  0.7440405E-01 -0.2686723E+01  0.6683851E-01  0.3268910E-01
 -0.5185370E+01  0.9701130E+01 -0.2310450E+00  0.8498473E-01 -0.2395052E+01  0.6238239E-01  0.5771345E-01
 -0.6111270E+01  0.9146160E+01 -0.2310450E+00  0.1019632E+00 -0.2185838E+01  0.5883202E-01  0.8327837E-01
 -0.6978330E+01  0.8503120E+01 -0.2310450E+00  0.1227072E+00 -0.2048174E+01  0.5637798E-01  0.1089889E+00
 -0.7778170E+01  0.7778170E+01 -0.2310450E+00  0.1451681E+00 -0.1958839E+01  0.5492834E-01  0.1343750E+00
 -0.8503120E+01  0.6978330E+01 -0.2310450E+00  0.1684231E+00 -0.1899784E+01  0.5441506E-01  0.1593905E+00
 -0.9146170E+01  0.6111270E+01 -0.2310450E+00  0.1918845E+00 -0.1860654E+01  0.5484366E-01  0.1838799E+00
 -0.9701130E+01  0.5185360E+01 -0.2310450E+00  0.2146362E+00 -0.1835748E+01  0.5620515E-01  0.2071465E+00
 -0.1016270E+02  0.4209520E+01 -0.2310450E+00  0.2364013E+00 -0.1819802E+01  0.5825886E-01  0.2291102E+00
 -0.1052630E+02  0.3193130E+01 -0.2310450E+00  0.2572069E+00 -0.1809689E+01  0.6086205E-01  0.2499024E+00
 -0.1078860E+02  0.2145990E+01 -0.2310450E+00  0.2767600E+00 -0.1803823E+01  0.6391048E-01  0.2692797E+00
 -0.1094700E+02  0.1078190E+01 -0.2310450E+00  0.2941647E+00 -0.1801317E+01  0.6721217E-01  0.2863833E+00
 -0.1100000E+02 -0.9616510E-06 -0.2310450E+00  0.3096885E+00 -0.1800601E+01  0.7054325E-01  0.3015471E+00
 -0.1094700E+02 -0.1078190E+01 -0.2310450E+00  0.3235801E+00 -0.1800842E+01  0.7378338E-01  0.3150557E+00
 -0.1078860E+02 -0.2146000E+01 -0.2310450E+00  0.3355165E+00 -0.1801710E+01  0.7678856E-01  0.3266112E+00
 -0.1052630E+02 -0.3193130E+01 -0.2310450E+00  0.3445617E+00 -0.1803047E+01  0.7930726E-01  0.3353105E+00
 -0.1016270E+02 -0.4209520E+01 -0.2310450E+00  0.3513333E+00 -0.1804238E+01  0.8127300E-01  0.3418037E+00
 -0.9701130E+01 -0.5185360E+01 -0.2310450E+00  0.3561800E+00 -0.1805011E+01  0.8266206E-01  0.3464552E+00
 -0.9146160E+01 -0.6111270E+01 -0.2310450E+00  0.3587394E+00 -0.1805351E+01  0.8337459E-01  0.3489164E+00
 -0.8503110E+01 -0.6978330E+01 -0.2310450E+00  0.3581396E+00 -0.1805393E+01  0.8324977E-01  0.3483295E+00
 -0.7778170E+01 -0.7778180E+01 -0.2310450E+00  0.3552260E+00 -0.1804940E+01  0.8241595E-01  0.3455331E+00
 -0.6978330E+01 -0.8503110E+01 -0.2310450E+00  0.3503585E+00 -0.1803967E+01  0.8095492E-01  0.3408773E+00
 -0.6111270E+01 -0.9146170E+01 -0.2310450E+00  0.3431866E+00 -0.1802684E+01  0.7886937E-01  0.3340010E+00
 -0.5185360E+01 -0.9701130E+01 -0.2310450E+00  0.3330327E+00 -0.1801601E+01  0.7618500E-01  0.3242015E+00
 -0.4209510E+01 -0.1016270E+02 -0.2310450E+00  0.3208305E+00 -0.1800810E+01  0.7314630E-01  0.3123809E+00
 -0.3193130E+01 -0.1052630E+02 -0.2310450E+00  0.3069145E+00 -0.1800549E+01  0.6989559E-01  0.2988496E+00
 -0.2145990E+01 -0.1078860E+02 -0.2310450E+00  0.2910051E+00 -0.1801482E+01  0.6653686E-01  0.2832963E+00
 -0.1078190E+01 -0.1094700E+02 -0.2310450E+00  0.2727567E+00 -0.1804902E+01  0.6327224E-01  0.2653165E+00
  0.1311740E-06 -0.1100000E+02 -0.2310450E+00  0.2530793E+00 -0.1811446E+01  0.6031721E-01  0.2457864E+00
  0.1078190E+01 -0.1094700E+02 -0.2310450E+00  0.2322640E+00 -0.1822253E+01  0.5779075E-01  0.2249595E+00
  0.2145990E+01 -0.1078860E+02 -0.2310450E+00  0.2102224E+00 -0.1839642E+01  0.5583908E-01  0.2026708E+00
  0.3193140E+01 -0.1052630E+02 -0.2310450E+00  0.1870923E+00 -0.1867574E+01  0.5471336E-01  0.1789133E+00
  0.4209520E+01 -0.1016270E+02 -0.2310450E+00  0.1637529E+00 -0.1909863E+01  0.5446541E-01  0.1544297E+00
  0.5185360E+01 -0.9701130E+01 -0.2310450E+00  0.1406445E+00 -0.1973459E+01  0.5511428E-01  0.1293958E+00
  0.6111270E+01 -0.9146160E+01 -0.2310450E+00  0.1183220E+00 -0.2071018E+01  0.5674956E-01  0.1038247E+00
  0.6978330E+01 -0.8503110E+01 -0.2310450E+00  0.9819807E-01 -0.2221760E+01  0.5950347E-01  0.7811657E-01
  0.7778180E+01 -0.7778170E+01 -0.2310450E+00  0.8232783E-01 -0.2446354E+01  0.6321964E-01  0.5273660E-01
  0.8503120E+01 -0.6978320E+01 -0.2310450E+00  0.7325006E-01 -0.2753358E+01  0.6779870E-01  0.2772918E-01
  0.9146170E+01 -0.6111270E+01 -0.2310450E+00  0.7327725E-01 -0.3097204E+01  0.7320507E-01  0.3251581E-02
  0.9701130E+01 -0.5185360E+01 -0.2310450E+00  0.8182847E-01  0.2894723E+01  0.7934760E-01 -0.1999643E-01
  0.1016270E+02 -0.4209520E+01 -0.2310450E+00  0.9563885E-01  0.2687642E+01  0.8595270E-01 -0.4193952E-01
  0.1052630E+02 -0.3193130E+01 -0.2310450E+00  0.1120522E+00  0.2547616E+01  0.9286005E-01 -0.6271123E-01
  0.1078860E+02 -0.2145990E+01 -0.2310450E+00  0.1293029E+00  0.2453984E+01  0.9992091E-01 -0.8206742E-01
  0.1094700E+02 -0.1078180E+01 -0.2310450E+00  0.1457622E+00  0.2393570E+01  0.1068488E+00 -0.9914611E-01
  0.1100000E+02  0.0000000E+00 -0.4105000E+00  0.1601558E+00  0.2351683E+01  0.1127352E+00 -0.1137570E+00
  0.1094700E+02  0.1078190E+01 -0.4105000E+00  0.1739832E+00  0.2322390E+01  0.1187964E+00 -0.1271124E+00
  0.1078860E+02  0.2145990E+01 -0.4105000E+00  0.1860042E+00  0.2301842E+01  0.1241855E+00 -0.1384757E+00
  0.1052630E+02  0.3193130E+01 -0.4105000E+00  0.1954814E+00  0.2288885E+01  0.1286164E+00 -0.1472101E+00
  0.1016270E+02  0.4209520E+01 -0.4105000E+00  0.2026349E+00  0.2280391E+01  0.1320221E+00 -0.1537241E+00
  0.9701130E+01  0.5185360E+01 -0.4105000E+00  0.2076157E+00  0.2274680E+01  0.1343654E+00 -0.1582726E+00
  0.9146170E+01  0.6111270E+01 -0.4105000E+00  0.2101470E+00  0.2271739E+01  0.1355319E+00 -0.1606017E+00
  0.8503110E+01  0.6978330E+01 -0.4105000E+00  0.2096752E+00  0.2272540E+01  0.1353558E+00 -0.1601327E+00
  0.7778170E+01  0.7778170E+01 -0.4105000E+00  0.2067129E+00  0.2275860E+01  0.1339670E+00 -0.1574264E+00
  0.6978330E+01  0.8503110E+01 -0.4105000E+00  0.2015168E+00  0.2281460E+01  0.1314568E+00 -0.1527355E+00
  0.6111270E+01  0.9146170E+01 -0.4105000E+00  0.1939122E+00  0.2290622E+01  0.1278373E+00 -0.1458066E+00
  0.5185360E+01  0.9701130E+01 -0.4105000E+00  0.1836036E+00  0.2305900E+01  0.1231363E+00 -0.1361900E+00
  0.4209520E+01  0.1016270E+02 -0.4105000E+00  0.1712876E+00  0.2327748E+01  0.1176247E+00 -0.1245146E+00
  0.3193130E+01  0.1052630E+02 -0.4105000E+00  0.1573318E+00  0.2358279E+01  0.1114820E+00 -0.1110182E+00
  0.2145990E+01  0.1078860E+02 -0.4105000E+00  0.1418089E+00  0.2402773E+01  0.1048343E+00 -0.9549635E-01
  0.1078190E+01  0.1094700E+02 -0.4105000E+00  0.1249916E+00  0.2470413E+01  0.9787948E-01 -0.7773350E-01
 -0.4808250E-06  0.1100000E+02 -0.4105000E+00  0.1080288E+00  0.2570718E+01  0.9089848E-01 -0.5837532E-01
 -0.1078190E+01  0.1094700E+02 -0.4105000E+00  0.9211200E-01  0.2720626E+01  0.8407009E-01 -0.3764094E-01
 -0.2145990E+01  0.1078860E+02 -0.4105000E+00  0.7908802E-01  0.2944892E+01  0.7756294E-01 -0.1545654E-01
 -0.3193130E+01  0.1052630E+02 -0.4105000E+00  0.7207730E-01 -0.3029076E+01  0.7162154E-01  0.8092795E-02
 -0.4209520E+01  0.1016270E+02 -0.4105000E+00  0.7388757E-01 -0.2687453E+01  0.6639823E-01  0.3241370E-01
 -0.5185370E+01  0.9701130E+01 -0.4105000E+00  0.8441937E-01 -0.2395223E+01  0.6197718E-01  0.5731892E-01
 -0.6111270E+01  0.9146160E+01 -0.4105000E+00  0.1013087E+00 -0.2185994E+01  0.5846728E-01  0.8273468E-01
 -0.6978330E+01  0.8503120E+01 -0.4105000E+00  0.1219131E+00 -0.2048144E+01  0.5600995E-01  0.1082852E+00
 -0.7778170E+01  0.7778170E+01 -0.4105000E+00  0.1442592E+00 -0.1958643E+01  0.5455820E-01  0.1335444E+00