 VARIABLES="X" "Y" "Z" "abs(eta) (m)" "angle(phi) (rad)" "PRE1" "PRE2"
ZONE N=   3200 ,E =    3136 ,F=FEPOINT,ET=QUADRILATERAL
  0.1100000E+02  0.0000000E+00  0.0000000E+00  0.1115871E+00  0.2356679E+01  0.7894222E-01 -0.7886579E-01
  0.1094700E+02  0.1078190E+01  0.0000000E+00  0.9829336E-01  0.2431456E+01  0.7453318E-01 -0.6408112E-01
  0.1078860E+02  0.2145990E+01  0.0000000E+00  0.8489932E-01  0.2543721E+01  0.7017229E-01 -0.4778855E-01
  0.1052630E+02  0.3193130E+01  0.0000000E+00  0.7273375E-01  0.2707216E+01  0.6597914E-01 -0.3060967E-01
  0.1016270E+02  0.4209520E+01  0.0000000E+00  0.6333776E-01  0.2945333E+01  0.6212185E-01 -0.1235103E-01
  0.9701130E+01  0.5185360E+01  0.0000000E+00  0.5910422E-01 -0.3027127E+01  0.5871743E-01  0.6750653E-02
  0.9146170E+01  0.6111270E+01  0.0000000E+00  0.6187660E-01 -0.2697253E+01  0.5586806E-01  0.2659835E-01
  0.8503110E+01  0.6978330E+01  0.0000000E+00  0.7110827E-01 -0.2423767E+01  0.5356143E-01  0.4677135E-01
  0.7778170E+01  0.7778170E+01  0.0000000E+00  0.8489010E-01 -0.2229312E+01  0.5194794E-01  0.6713971E-01
  0.6978330E+01  0.8503110E+01  0.0000000E+00  0.1013084E+00 -0.2098867E+01  0.5104606E-01  0.8750826E-01
  0.6111270E+01  0.9146170E+01  0.0000000E+00  0.1190900E+00 -0.2012054E+01  0.5086064E-01  0.1076830E+00
  0.5185360E+01  0.9701130E+01  0.0000000E+00  0.1374499E+00 -0.1952978E+01  0.5126137E-01  0.1275334E+00
  0.4209520E+01  0.1016270E+02  0.0000000E+00  0.1556844E+00 -0.1913356E+01  0.5229428E-01  0.1466388E+00
  0.3193130E+01  0.1052630E+02  0.0000000E+00  0.1734791E+00 -0.1886577E+01  0.5387543E-01  0.1649013E+00
  0.2145990E+01  0.1078860E+02  0.0000000E+00  0.1904763E+00 -0.1868723E+01  0.5591228E-01  0.1820853E+00
  0.1078190E+01  0.1094700E+02  0.0000000E+00  0.2067555E+00 -0.1856352E+01  0.5824111E-01  0.1983830E+00
 -0.4808250E-06  0.1100000E+02  0.0000000E+00  0.2216701E+00 -0.1848561E+01  0.6078341E-01  0.2131737E+00
 -0.1078190E+01  0.1094700E+02  0.0000000E+00  0.2351930E+00 -0.1843791E+01  0.6341184E-01  0.2264833E+00
 -0.2145990E+01  0.1078860E+02  0.0000000E+00  0.2470540E+00 -0.1841211E+01  0.6599585E-01  0.2380760E+00
 -0.3193130E+01  0.1052630E+02  0.0000000E+00  0.2576853E+00 -0.1839612E+01  0.6843869E-01  0.2484308E+00
 -0.4209520E+01  0.1016270E+02  0.0000000E+00  0.2663417E+00 -0.1839046E+01  0.7059225E-01  0.2568163E+00
 -0.5185370E+01  0.9701130E+01  0.0000000E+00  0.2731296E+00 -0.1838950E+01  0.7236607E-01  0.2633684E+00
 -0.6111270E+01  0.9146160E+01  0.0000000E+00  0.2778099E+00 -0.1839187E+01  0.7366960E-01  0.2678640E+00
 -0.6978330E+01  0.8503120E+01  0.0000000E+00  0.2810323E+00 -0.1839196E+01  0.7452657E-01  0.2709704E+00
 -0.7778170E+01  0.7778170E+01  0.0000000E+00  0.2820444E+00 -0.1839261E+01  0.7481275E-01  0.2719414E+00
 -0.8503120E+01  0.6978330E+01  0.0000000E+00  0.2810321E+00 -0.1839196E+01  0.7452653E-01  0.2709702E+00
 -0.9146170E+01  0.6111270E+01  0.0000000E+00  0.2778094E+00 -0.1839187E+01  0.7366950E-01  0.2678635E+00
 -0.9701130E+01  0.5185360E+01  0.0000000E+00  0.2731304E+00 -0.1838949E+01  0.7236610E-01  0.2633692E+00
 -0.1016270E+02  0.4209520E+01  0.0000000E+00  0.2663420E+00 -0.1839045E+01  0.7059219E-01  0.2568166E+00
 -0.1052630E+02  0.3193130E+01  0.0000000E+00  0.2576853E+00 -0.1839612E+01  0.6843863E-01  0.2484308E+00
 -0.1078860E+02  0.2145990E+01  0.0000000E+00  0.2470538E+00 -0.1841211E+01  0.6599578E-01  0.2380759E+00
 -0.1094700E+02  0.1078190E+01  0.0000000E+00  0.2351929E+00 -0.1843790E+01  0.6341171E-01  0.2264832E+00
 -0.1100000E+02 -0.9616510E-06  0.0000000E+00  0.2216700E+00 -0.1848561E+01  0.6078337E-01  0.2131735E+00
 -0.1094700E+02 -0.1078190E+01  0.0000000E+00  0.2067552E+00 -0.1856352E+01  0.5824100E-01  0.1983827E+00
 -0.1078860E+02 -0.2146000E+01  0.0000000E+00  0.1904761E+00 -0.1868724E+01  0.5591227E-01  0.1820850E+00
 -0.1052630E+02 -0.3193130E+01  0.0000000E+00  0.1734790E+00 -0.1886577E+01  0.5387538E-01  0.1649012E+00
 -0.1016270E+02 -0.4209520E+01  0.0000000E+00  0.1556842E+00 -0.1913356E+01  0.5229422E-01  0.1466386E+00
 -0.9701130E+01 -0.5185360E+01  0.0000000E+00  0.1374499E+00 -0.1952978E+01  0.5126133E-01  0.1275333E+00
 -0.9146160E+01 -0.6111270E+01  0.0000000E+00  0.1190900E+00 -0.2012054E+01  0.5086063E-01  0.1076830E+00
 -0.8503110E+01 -0.6978330E+01  0.0000000E+00  0.1013084E+00 -0.2098866E+01  0.5104601E-01  0.8750830E-01
 -0.7778170E+01 -0.7778180E+01  0.0000000E+00  0.8489007E-01 -0.2229312E+01  0.5194794E-01  0.6713966E-01
 -0.6978330E+01 -0.8503110E+01  0.0000000E+00  0.7110832E-01 -0.2423765E+01  0.5356138E-01  0.4677149E-01
 -0.6111270E+01 -0.9146170E+01  0.0000000E+00  0.6187662E-01 -0.2697251E+01  0.5586802E-01  0.2659851E-01
 -0.5185360E+01 -0.9701130E+01  0.0000000E+00  0.5910422E-01 -0.3027124E+01  0.5871742E-01  0.6750784E-02
 -0.4209510E+01 -0.1016270E+02  0.0000000E+00  0.6333774E-01  0.2945333E+01  0.6212185E-01 -0.1235097E-01
 -0.3193130E+01 -0.1052630E+02  0.0000000E+00  0.7273363E-01  0.2707218E+01  0.6597911E-01 -0.3060944E-01
 -0.2145990E+01 -0.1078860E+02  0.0000000E+00  0.8489915E-01  0.2543723E+01  0.7017225E-01 -0.4778829E-01
 -0.1078190E+01 -0.1094700E+02  0.0000000E+00  0.9829320E-01  0.2431458E+01  0.7453318E-01 -0.6408088E-01
  0.1311740E-06 -0.1100000E+02  0.0000000E+00  0.1115869E+00  0.2356679E+01  0.7894212E-01 -0.7886560E-01
  0.1078190E+01 -0.1094700E+02  0.0000000E+00  0.1242086E+00  0.2305451E+01  0.8326094E-01 -0.9217051E-01
  0.2145990E+01 -0.1078860E+02  0.0000000E+00  0.1356222E+00  0.2270477E+01  0.8733709E-01 -0.1037575E+00
  0.3193140E+01 -0.1052630E+02  0.0000000E+00  0.1460046E+00  0.2244469E+01  0.9108648E-01 -0.1141079E+00
  0.4209520E+01 -0.1016270E+02  0.0000000E+00  0.1545942E+00  0.2226980E+01  0.9431757E-01 -0.1224890E+00
  0.5185360E+01 -0.9701130E+01  0.0000000E+00  0.1613939E+00  0.2215092E+01  0.9693892E-01 -0.1290381E+00
  0.6111270E+01 -0.9146160E+01  0.0000000E+00  0.1661336E+00  0.2208015E+01  0.9884324E-01 -0.1335305E+00
  0.6978330E+01 -0.8503110E+01  0.0000000E+00  0.1693686E+00  0.2202987E+01  0.1000821E+00 -0.1366356E+00
  0.7778180E+01 -0.7778170E+01  0.0000000E+00  0.1703941E+00  0.2201566E+01  0.1004928E+00 -0.1376058E+00
  0.8503120E+01 -0.6978320E+01  0.0000000E+00  0.1693685E+00  0.2202987E+01  0.1000822E+00 -0.1366355E+00
  0.9146170E+01 -0.6111270E+01  0.0000000E+00  0.1661337E+00  0.2208015E+01  0.9884324E-01 -0.1335305E+00
  0.9701130E+01 -0.5185360E+01  0.0000000E+00  0.1613939E+00  0.2215092E+01  0.9693895E-01 -0.1290381E+00
  0.1016270E+02 -0.4209520E+01  0.0000000E+00  0.1545941E+00  0.2226980E+01  0.9431754E-01 -0.1224890E+00
  0.1052630E+02 -0.3193130E+01  0.0000000E+00  0.1460046E+00  0.2244468E+01  0.9108643E-01 -0.1141079E+00
  0.1078860E+02 -0.2145990E+01  0.0000000E+00  0.1356225E+00  0.2270476E+01  0.8733717E-01 -0.1037578E+00
  0.1094700E+02 -0.1078180E+01  0.0000000E+00  0.1242087E+00  0.2305452E+01  0.8326099E-01 -0.9217048E-01
  0.1100000E+02  0.0000000E+00 -0.2568960E-01  0.1115177E+00  0.2356598E+01  0.7888675E-01 -0.7882310E-01
  0.1094700E+02  0.1078190E+01 -0.2568960E-01  0.9823296E-01  0.2431351E+01  0.7448068E-01 -0.6404954E-01
  0.1078860E+02  0.2145990E+01 -0.2568960E-01  0.8484935E-01  0.2543542E+01  0.7012247E-01 -0.4777291E-01
  0.1052630E+02  0.3193130E+01 -0.2568960E-01  0.7268727E-01  0.2707075E+01  0.6593267E-01 -0.3059939E-01
  0.1016270E+02  0.4209520E+01 -0.2568960E-01  0.6329478E-01  0.2945218E+01  0.6207827E-01 -0.1234978E-01
  0.9701130E+01  0.5185360E+01 -0.2568960E-01  0.5906140E-01 -0.3027231E+01  0.5867561E-01  0.6739620E-02
  0.9146170E+01  0.6111270E+01 -0.2568960E-01  0.6182836E-01 -0.2697341E+01  0.5582684E-01  0.2657272E-01
  0.8503110E+01  0.6978330E+01 -0.2568960E-01  0.7105552E-01 -0.2423799E+01  0.5352319E-01  0.4673494E-01
  0.7778170E+01  0.7778170E+01 -0.2568960E-01  0.8482978E-01 -0.2229318E+01  0.5191144E-01  0.6709169E-01
  0.6978330E+01  0.8503110E+01 -0.2568960E-01  0.1012386E+00 -0.2098853E+01  0.5100960E-01  0.8744865E-01
  0.6111270E+01  0.9146170E+01 -0.2568960E-01  0.1190103E+00 -0.2012018E+01  0.5082268E-01  0.1076127E+00
  0.5185360E+01  0.9701130E+01 -0.2568960E-01  0.1373570E+00 -0.1952962E+01  0.5122464E-01  0.1274480E+00
  0.4209520E+01  0.1016270E+02 -0.2568960E-01  0.1555801E+00 -0.1913344E+01  0.5225743E-01  0.1465412E+00
  0.3193130E+01  0.1052630E+02 -0.2568960E-01  0.1733659E+00 -0.1886558E+01  0.5383714E-01  0.1647947E+00
  0.2145990E+01  0.1078860E+02 -0.2568960E-01  0.1903573E+00 -0.1868693E+01  0.5587188E-01  0.1819732E+00
  0.1078190E+01  0.1094700E+02 -0.2568960E-01  0.2066211E+00 -0.1856334E+01  0.5819961E-01  0.1982551E+00
 -0.4808250E-06  0.1100000E+02 -0.2568960E-01  0.2215243E+00 -0.1848547E+01  0.6074037E-01  0.2130343E+00
 -0.1078190E+01  0.1094700E+02 -0.2568960E-01  0.2350424E+00 -0.1843773E+01  0.6336714E-01  0.2263395E+00
 -0.2145990E+01  0.1078860E+02 -0.2568960E-01  0.2469033E+00 -0.1841186E+01  0.6594970E-01  0.2379325E+00
 -0.3193130E+01  0.1052630E+02 -0.2568960E-01  0.2575199E+00 -0.1839595E+01  0.6839038E-01  0.2482725E+00
 -0.4209520E+01  0.1016270E+02 -0.2568960E-01  0.2661681E+00 -0.1839030E+01  0.7054210E-01  0.2566501E+00
 -0.5185370E+01  0.9701130E+01 -0.2568960E-01  0.2729558E+00 -0.1838932E+01  0.7231539E-01  0.2632021E+00
 -0.6111270E+01  0.9146160E+01 -0.2568960E-01  0.2776420E+00 -0.1839165E+01  0.7361917E-01  0.2677038E+00
 -0.6978330E+01  0.8503120E+01 -0.2568960E-01  0.2808522E+00 -0.1839179E+01  0.7447422E-01  0.2707980E+00
 -0.7778170E+01  0.7778170E+01 -0.2568960E-01  0.2818608E+00 -0.1839245E+01  0.7475963E-01  0.2717655E+00
 -0.8503120E+01  0.6978330E+01 -0.2568960E-01  0.2808526E+00 -0.1839178E+01  0.7447420E-01  0.2707984E+00
 -0.9146170E+01  0.6111270E+01 -0.2568960E-01  0.2776419E+00 -0.1839165E+01  0.7361909E-01  0.2677037E+00
 -0.9701130E+01  0.5185360E+01 -0.2568960E-01  0.2729556E+00 -0.1838932E+01  0.7231534E-01  0.2632020E+00
 -0.1016270E+02  0.4209520E+01 -0.2568960E-01  0.2661680E+00 -0.1839030E+01  0.7054213E-01  0.2566500E+00
 -0.1052630E+02  0.3193130E+01 -0.2568960E-01  0.2575200E+00 -0.1839594E+01  0.6839034E-01  0.2482726E+00
 -0.1078860E+02  0.2145990E+01 -0.2568960E-01  0.2469030E+00 -0.1841187E+01  0.6594965E-01  0.2379322E+00
 -0.1094700E+02  0.1078190E+01 -0.2568960E-01  0.2350422E+00 -0.1843773E+01  0.6336705E-01  0.2263393E+00
 -0.1100000E+02 -0.9616510E-06 -0.2568960E-01  0.2215240E+00 -0.1848547E+01  0.6074032E-01  0.2130340E+00
 -0.1094700E+02 -0.1078190E+01 -0.2568960E-01  0.2066208E+00 -0.1856334E+01  0.5819953E-01  0.1982548E+00
 -0.1078860E+02 -0.2146000E+01 -0.2568960E-01  0.1903572E+00 -0.1868693E+01  0.5587170E-01  0.1819731E+00
 -0.1052630E+02 -0.3193130E+01 -0.2568960E-01  0.1733658E+00 -0.1886558E+01  0.5383708E-01  0.1647947E+00
 -0.1016270E+02 -0.4209520E+01 -0.2568960E-01  0.1555799E+00 -0.1913344E+01  0.5225738E-01  0.1465410E+00
 -0.9701130E+01 -0.5185360E+01 -0.2568960E-01  0.1373572E+00 -0.1952961E+01  0.5122465E-01  0.1274481E+00
 -0.9146160E+01 -0.6111270E+01 -0.2568960E-01  0.1190101E+00 -0.2012018E+01  0.5082261E-01  0.1076126E+00
 -0.8503110E+01 -0.6978330E+01 -0.2568960E-01  0.1012384E+00 -0.2098852E+01  0.5100945E-01  0.8744860E-01
 -0.7778170E+01 -0.7778180E+01 -0.2568960E-01  0.8482981E-01 -0.2229318E+01  0.5191143E-01  0.6709173E-01
 -0.6978330E+01 -0.8503110E+01 -0.2568960E-01  0.7105562E-01 -0.2423798E+01  0.5352322E-01  0.4673507E-01
 -0.6111270E+01 -0.9146170E+01 -0.2568960E-01  0.6182835E-01 -0.2697339E+01  0.5582677E-01  0.2657286E-01
 -0.5185360E+01 -0.9701130E+01 -0.2568960E-01  0.5906138E-01 -0.3027229E+01  0.5867557E-01  0.6739753E-02
 -0.4209510E+01 -0.1016270E+02 -0.2568960E-01  0.6329479E-01  0.2945218E+01  0.6207829E-01 -0.1234975E-01
 -0.3193130E+01 -0.1052630E+02 -0.2568960E-01  0.7268716E-01  0.2707079E+01  0.6593271E-01 -0.3059906E-01
 -0.2145990E+01 -0.1078860E+02 -0.2568960E-01  0.8484915E-01  0.2543545E+01  0.7012244E-01 -0.4777260E-01
 -0.1078190E+01 -0.1094700E+02 -0.2568960E-01  0.9823281E-01  0.2431353E+01  0.7448065E-01 -0.6404933E-01
  0.1311740E-06 -0.1100000E+02 -0.2568960E-01  0.1115176E+00  0.2356599E+01  0.7888680E-01 -0.7882295E-01
  0.1078190E+01 -0.1094700E+02 -0.2568960E-01  0.1241343E+00  0.2305364E+01  0.8320305E-01 -0.9212263E-01
  0.2145990E+01 -0.1078860E+02 -0.2568960E-01  0.1355476E+00  0.2270361E+01  0.8727700E-01 -0.1037106E+00
  0.3193140E+01 -0.1052630E+02 -0.2568960E-01  0.1459165E+00  0.2244394E+01  0.9102294E-01 -0.1140458E+00
  0.4209520E+01 -0.1016270E+02 -0.2568960E-01  0.1544982E+00  0.2226918E+01  0.9425132E-01 -0.1224189E+00
  0.5185360E+01 -0.9701130E+01 -0.2568960E-01  0.1612971E+00  0.2215021E+01  0.9687166E-01 -0.1289676E+00
  0.6111270E+01 -0.9146160E+01 -0.2568960E-01  0.1660426E+00  0.2207920E+01  0.9877634E-01 -0.1334668E+00
  0.6978330E+01 -0.8503110E+01 -0.2568960E-01  0.1692667E+00  0.2202919E+01  0.1000126E+00 -0.1365602E+00
  0.7778180E+01 -0.7778170E+01 -0.2568960E-01  0.1702883E+00  0.2201507E+01  0.1004222E+00 -0.1375263E+00
  0.8503120E+01 -0.6978320E+01 -0.2568960E-01  0.1692666E+00  0.2202919E+01  0.1000126E+00 -0.1365601E+00
  0.9146170E+01 -0.6111270E+01 -0.2568960E-01  0.1660425E+00  0.2207920E+01  0.9877633E-01 -0.1334666E+00
  0.9701130E+01 -0.5185360E+01 -0.2568960E-01  0.1612971E+00  0.2215022E+01  0.9687170E-01 -0.1289675E+00
  0.1016270E+02 -0.4209520E+01 -0.2568960E-01  0.1544983E+00  0.2226917E+01  0.9425132E-01 -0.1224190E+00
  0.1052630E+02 -0.3193130E+01 -0.2568960E-01  0.1459165E+00  0.2244393E+01  0.9102285E-01 -0.1140459E+00
  0.1078860E+02 -0.2145990E+01 -0.2568960E-01  0.1355478E+00  0.2270360E+01  0.8727713E-01 -0.1037107E+00
  0.1094700E+02 -0.1078180E+01 -0.2568960E-01  0.1241342E+00  0.2305363E+01  0.8320291E-01 -0.9212267E-01
  0.1100000E+02  0.0000000E+00 -0.1027320E+00  0.1112967E+00  0.2356488E+01  0.7872173E-01 -0.7867553E-01
  0.1094700E+02  0.1078190E+01 -0.1027320E+00  0.9804299E-01  0.2431142E+01  0.7432327E-01 -0.6394123E-01
  0.1078860E+02  0.2145990E+01 -0.1027320E+00  0.8469287E-01  0.2543083E+01  0.6997125E-01 -0.4771694E-01
  0.1052630E+02  0.3193130E+01 -0.1027320E+00  0.7254074E-01  0.2706775E+01  0.6579061E-01 -0.3055739E-01
  0.1016270E+02  0.4209520E+01 -0.1027320E+00  0.6316086E-01  0.2945027E+01  0.6194458E-01 -0.1233545E-01
  0.9701130E+01  0.5185360E+01 -0.1027320E+00  0.5892945E-01 -0.3027445E+01  0.5854595E-01  0.6712076E-02
  0.9146170E+01  0.6111270E+01 -0.1027320E+00  0.6168007E-01 -0.2697522E+01  0.5569773E-01  0.2649894E-01
  0.8503110E+01  0.6978330E+01 -0.1027320E+00  0.7089526E-01 -0.2423817E+01  0.5340331E-01  0.4662857E-01
  0.7778170E+01  0.7778170E+01 -0.1027320E+00  0.8464599E-01 -0.2229294E+01  0.5179735E-01  0.6694757E-01
  0.6978330E+01  0.8503110E+01 -0.1027320E+00  0.1010235E+00 -0.2098778E+01  0.5089468E-01  0.8726673E-01
  0.6111270E+01  0.9146170E+01 -0.1027320E+00  0.1187650E+00 -0.2011884E+01  0.5070354E-01  0.1073978E+00
  0.5185360E+01  0.9701130E+01 -0.1027320E+00  0.1370727E+00 -0.1952897E+01  0.5111038E-01  0.1271875E+00
  0.4209520E+01  0.1016270E+02 -0.1027320E+00  0.1552571E+00 -0.1913311E+01  0.5214420E-01  0.1462386E+00
  0.3193130E+01  0.1052630E+02 -0.1027320E+00  0.1730155E+00 -0.1886507E+01  0.5371994E-01  0.1644644E+00
  0.2145990E+01  0.1078860E+02 -0.1027320E+00  0.1899922E+00 -0.1868607E+01  0.5574907E-01  0.1816290E+00
  0.1078190E+01  0.1094700E+02 -0.1027320E+00  0.2062055E+00 -0.1856299E+01  0.5807570E-01  0.1978583E+00
 -0.4808250E-06  0.1100000E+02 -0.1027320E+00  0.2210704E+00 -0.1848534E+01  0.6061325E-01  0.2125986E+00
 -0.1078190E+01  0.1094700E+02 -0.1027320E+00  0.2345743E+00 -0.1843751E+01  0.6323609E-01  0.2258900E+00
 -0.2145990E+01  0.1078860E+02 -0.1027320E+00  0.2464407E+00 -0.1841144E+01  0.6581607E-01  0.2374895E+00
 -0.3193130E+01  0.1052630E+02 -0.1027320E+00  0.2570078E+00 -0.1839582E+01  0.6825120E-01  0.2477797E+00
 -0.4209520E+01  0.1016270E+02 -0.1027320E+00  0.2656250E+00 -0.1839030E+01  0.7039827E-01  0.2561263E+00
 -0.5185370E+01  0.9701130E+01 -0.1027320E+00  0.2724148E+00 -0.1838926E+01  0.7217050E-01  0.2626809E+00
 -0.6111270E+01  0.9146160E+01 -0.1027320E+00  0.2771258E+00 -0.1839143E+01  0.7347658E-01  0.2672077E+00
 -0.6978330E+01  0.8503120E+01 -0.1027320E+00  0.2802961E+00 -0.1839176E+01  0.7432589E-01  0.2702620E+00
 -0.7778170E+01  0.7778170E+01 -0.1027320E+00  0.2812865E+00 -0.1839249E+01  0.7460850E-01  0.2712115E+00
 -0.8503120E+01  0.6978330E+01 -0.1027320E+00  0.2802964E+00 -0.1839175E+01  0.7432584E-01  0.2702624E+00
 -0.9146170E+01  0.6111270E+01 -0.1027320E+00  0.2771260E+00 -0.1839143E+01  0.7347648E-01  0.2672078E+00
 -0.9701130E+01  0.5185360E+01 -0.1027320E+00  0.2724146E+00 -0.1838927E+01  0.7217051E-01  0.2626806E+00
 -0.1016270E+02  0.4209520E+01 -0.1027320E+00  0.2656249E+00 -0.1839030E+01  0.7039823E-01  0.2561263E+00
 -0.1052630E+02  0.3193130E+01 -0.1027320E+00  0.2570079E+00 -0.1839582E+01  0.6825116E-01  0.2477798E+00
 -0.1078860E+02  0.2145990E+01 -0.1027320E+00  0.2464408E+00 -0.1841144E+01  0.6581602E-01  0.2374896E+00
 -0.1094700E+02  0.1078190E+01 -0.1027320E+00  0.2345742E+00 -0.1843751E+01  0.6323598E-01  0.2258899E+00
 -0.1100000E+02 -0.9616510E-06 -0.1027320E+00  0.2210701E+00 -0.1848534E+01  0.6061315E-01  0.2125983E+00
 -0.1094700E+02 -0.1078190E+01 -0.1027320E+00  0.2062055E+00 -0.1856299E+01  0.5807568E-01  0.1978584E+00
 -0.1078860E+02 -0.2146000E+01 -0.1027320E+00  0.1899921E+00 -0.1868607E+01  0.5574906E-01  0.1816288E+00
 -0.1052630E+02 -0.3193130E+01 -0.1027320E+00  0.1730157E+00 -0.1886506E+01  0.5371985E-01  0.1644646E+00
 -0.1016270E+02 -0.4209520E+01 -0.1027320E+00  0.1552569E+00 -0.1913311E+01  0.5214411E-01  0.1462385E+00
 -0.9701130E+01 -0.5185360E+01 -0.1027320E+00  0.1370725E+00 -0.1952897E+01  0.5111033E-01  0.1271873E+00
 -0.9146160E+01 -0.6111270E+01 -0.1027320E+00  0.1187651E+00 -0.2011883E+01  0.5070345E-01  0.1073979E+00
 -0.8503110E+01 -0.6978330E+01 -0.1027320E+00  0.1010235E+00 -0.2098777E+01  0.5089465E-01  0.8726673E-01
 -0.7778170E+01 -0.7778180E+01 -0.1027320E+00  0.8464592E-01 -0.2229294E+01  0.5179733E-01  0.6694750E-01
 -0.6978330E+01 -0.8503110E+01 -0.1027320E+00  0.7089530E-01 -0.2423815E+01  0.5340323E-01  0.4662873E-01
 -0.6111270E+01 -0.9146170E+01 -0.1027320E+00  0.6168007E-01 -0.2697519E+01  0.5569765E-01  0.2649911E-01
 -0.5185360E+01 -0.9701130E+01 -0.1027320E+00  0.5892942E-01 -0.3027442E+01  0.5854590E-01  0.6712257E-02
 -0.4209510E+01 -0.1016270E+02 -0.1027320E+00  0.6316081E-01  0.2945027E+01  0.6194453E-01 -0.1233543E-01
 -0.3193130E+01 -0.1052630E+02 -0.1027320E+00  0.7254057E-01  0.2706778E+01  0.6579053E-01 -0.3055716E-01
 -0.2145990E+01 -0.1078860E+02 -0.1027320E+00  0.8469278E-01  0.2543086E+01  0.6997129E-01 -0.4771671E-01
 -0.1078190E+01 -0.1094700E+02 -0.1027320E+00  0.9804279E-01  0.2431143E+01  0.7432318E-01 -0.6394101E-01
  0.1311740E-06 -0.1100000E+02 -0.1027320E+00  0.1112965E+00  0.2356489E+01  0.7872165E-01 -0.7867530E-01
  0.1078190E+01 -0.1094700E+02 -0.1027320E+00  0.1238997E+00  0.2305204E+01  0.8303108E-01 -0.9196179E-01
  0.2145990E+01 -0.1078860E+02 -0.1027320E+00  0.1353159E+00  0.2270100E+01  0.8710082E-01 -0.1035560E+00
  0.3193140E+01 -0.1052630E+02 -0.1027320E+00  0.1456406E+00  0.2244272E+01  0.9083707E-01 -0.1138412E+00
  0.4209520E+01 -0.1016270E+02 -0.1027320E+00  0.1541936E+00  0.2226855E+01  0.9405790E-01 -0.1221834E+00
  0.5185360E+01 -0.9701130E+01 -0.1027320E+00  0.1609934E+00  0.2214920E+01  0.9667619E-01 -0.1287346E+00
  0.6111270E+01 -0.9146160E+01 -0.1027320E+00  0.1657610E+00  0.2207730E+01  0.9858361E-01 -0.1332591E+00
  0.6978330E+01 -0.8503110E+01 -0.1027320E+00  0.1689476E+00  0.2202827E+01  0.9981168E-01 -0.1363119E+00
  0.7778180E+01 -0.7778170E+01 -0.1027320E+00  0.1699527E+00  0.2201456E+01  0.1002173E+00 -0.1372603E+00
  0.8503120E+01 -0.6978320E+01 -0.1027320E+00  0.1689475E+00  0.2202827E+01  0.9981161E-01 -0.1363118E+00
  0.9146170E+01 -0.6111270E+01 -0.1027320E+00  0.1657608E+00  0.2207731E+01  0.9858356E-01 -0.1332589E+00
  0.9701130E+01 -0.5185360E+01 -0.1027320E+00  0.1609935E+00  0.2214920E+01  0.9667621E-01 -0.1287347E+00
  0.1016270E+02 -0.4209520E+01 -0.1027320E+00  0.1541937E+00  0.2226855E+01  0.9405788E-01 -0.1221836E+00
  0.1052630E+02 -0.3193130E+01 -0.1027320E+00  0.1456407E+00  0.2244272E+01  0.9083705E-01 -0.1138413E+00
  0.1078860E+02 -0.2145990E+01 -0.1027320E+00  0.1353160E+00  0.2270100E+01  0.8710089E-01 -0.1035561E+00
  0.1094700E+02 -0.1078180E+01 -0.1027320E+00  0.1238997E+00  0.2305203E+01  0.8303100E-01 -0.9196185E-01
  0.1100000E+02  0.0000000E+00 -0.2310450E+00  0.1109371E+00  0.2356269E+01  0.7845020E-01 -0.7843851E-01
  0.1094700E+02  0.1078190E+01 -0.2310450E+00  0.9773050E-01  0.2430799E+01  0.7406452E-01 -0.6376284E-01
  0.1078860E+02  0.2145990E+01 -0.2310450E+00  0.8443851E-01  0.2542293E+01  0.6972350E-01 -0.4762872E-01
  0.1052630E+02  0.3193130E+01 -0.2310450E+00  0.7230251E-01  0.2706273E+01  0.6555922E-01 -0.3049001E-01
  0.1016270E+02  0.4209520E+01 -0.2310450E+00  0.6294316E-01  0.2944660E+01  0.6172655E-01 -0.1231561E-01
  0.9701130E+01  0.5185360E+01 -0.2310450E+00  0.5871528E-01 -0.3027807E+01  0.5833559E-01  0.6666555E-02
  0.9146170E+01  0.6111270E+01 -0.2310450E+00  0.6143725E-01 -0.2697876E+01  0.5548782E-01  0.2637494E-01
  0.8503110E+01  0.6978330E+01 -0.2310450E+00  0.7063247E-01 -0.2423913E+01  0.5320981E-01  0.4645063E-01
  0.7778170E+01  0.7778170E+01 -0.2310450E+00  0.8434360E-01 -0.2229298E+01  0.5161260E-01  0.6670818E-01
  0.6978330E+01  0.8503110E+01 -0.2310450E+00  0.1006705E+00 -0.2098695E+01  0.5070965E-01  0.8696602E-01
  0.6111270E+01  0.9146170E+01 -0.2310450E+00  0.1183621E+00 -0.2011684E+01  0.5051012E-01  0.1070435E+00
  0.5185360E+01  0.9701130E+01 -0.2310450E+00  0.1366019E+00 -0.1952824E+01  0.5092556E-01  0.1267543E+00
  0.4209520E+01  0.1016270E+02 -0.2310450E+00  0.1547257E+00 -0.1913272E+01  0.5196004E-01  0.1457402E+00
  0.3193130E+01  0.1052630E+02 -0.2310450E+00  0.1724377E+00 -0.1886440E+01  0.5352962E-01  0.1639187E+00
  0.2145990E+01  0.1078860E+02 -0.2310450E+00  0.1893913E+00 -0.1868472E+01  0.5554824E-01  0.1810620E+00
  0.1078190E+01  0.1094700E+02 -0.2310450E+00  0.2055179E+00 -0.1856251E+01  0.5787265E-01  0.1972013E+00
 -0.4808250E-06  0.1100000E+02 -0.2310450E+00  0.2203246E+00 -0.1848513E+01  0.6040422E-01  0.2118827E+00
 -0.1078190E+01  0.1094700E+02 -0.2310450E+00  0.2338012E+00 -0.1843718E+01  0.6302022E-01  0.2251476E+00
 -0.2145990E+01  0.1078860E+02 -0.2310450E+00  0.2456804E+00 -0.1841068E+01  0.6559494E-01  0.2367619E+00
 -0.3193130E+01  0.1052630E+02 -0.2310450E+00  0.2561601E+00 -0.1839559E+01  0.6802034E-01  0.2469640E+00
 -0.4209520E+01  0.1016270E+02 -0.2310450E+00  0.2647335E+00 -0.1839022E+01  0.7015985E-01  0.2552673E+00
 -0.5185370E+01  0.9701130E+01 -0.2310450E+00  0.2715204E+00 -0.1838911E+01  0.7192965E-01  0.2618195E+00
 -0.6111270E+01  0.9146160E+01 -0.2310450E+00  0.2762779E+00 -0.1839096E+01  0.7323927E-01  0.2663935E+00
 -0.6978330E+01  0.8503120E+01 -0.2310450E+00  0.2793754E+00 -0.1839164E+01  0.7407849E-01  0.2693751E+00
 -0.7778170E+01  0.7778170E+01 -0.2310450E+00  0.2803439E+00 -0.1839245E+01  0.7435732E-01  0.2703030E+00
 -0.8503120E+01  0.6978330E+01 -0.2310450E+00  0.2793756E+00 -0.1839163E+01  0.7407846E-01  0.2693754E+00
 -0.9146170E+01  0.6111270E+01 -0.2310450E+00  0.2762780E+00 -0.1839096E+01  0.7323913E-01  0.2663936E+00
 -0.9701130E+01  0.5185360E+01 -0.2310450E+00  0.2715202E+00 -0.1838912E+01  0.7192961E-01  0.2618193E+00
 -0.1016270E+02  0.4209520E+01 -0.2310450E+00  0.2647336E+00 -0.1839021E+01  0.7015979E-01  0.2552675E+00
 -0.1052630E+02  0.3193130E+01 -0.2310450E+00  0.2561596E+00 -0.1839559E+01  0.6802031E-01  0.2469635E+00
 -0.1078860E+02  0.2145990E+01 -0.2310450E+00  0.2456803E+00 -0.1841067E+01  0.6559484E-01  0.2367617E+00
 -0.1094700E+02  0.1078190E+01 -0.2310450E+00  0.2338008E+00 -0.1843718E+01  0.6302020E-01  0.2251472E+00
 -0.1100000E+02 -0.9616510E-06 -0.2310450E+00  0.2203247E+00 -0.1848512E+01  0.6040420E-01  0.2118828E+00
 -0.1094700E+02 -0.1078190E+01 -0.2310450E+00  0.2055179E+00 -0.1856251E+01  0.5787260E-01  0.1972013E+00
 -0.1078860E+02 -0.2146000E+01 -0.2310450E+00  0.1893913E+00 -0.1868472E+01  0.5554822E-01  0.1810620E+00
 -0.1052630E+02 -0.3193130E+01 -0.2310450E+00  0.1724375E+00 -0.1886440E+01  0.5352956E-01  0.1639185E+00
 -0.1016270E+02 -0.4209520E+01 -0.2310450E+00  0.1547257E+00 -0.1913272E+01  0.5196005E-01  0.1457402E+00
 -0.9701130E+01 -0.5185360E+01 -0.2310450E+00  0.1366021E+00 -0.1952823E+01  0.5092554E-01  0.1267545E+00
 -0.9146160E+01 -0.6111270E+01 -0.2310450E+00  0.1183621E+00 -0.2011683E+01  0.5051005E-01  0.1070435E+00
 -0.8503110E+01 -0.6978330E+01 -0.2310450E+00  0.1006706E+00 -0.2098694E+01  0.5070962E-01  0.8696610E-01
 -0.7778170E+01 -0.7778180E+01 -0.2310450E+00  0.8434354E-01 -0.2229299E+01  0.5161259E-01  0.6670812E-01
 -0.6978330E+01 -0.8503110E+01 -0.2310450E+00  0.7063258E-01 -0.2423911E+01  0.5320979E-01  0.4645083E-01
 -0.6111270E+01 -0.9146170E+01 -0.2310450E+00  0.6143724E-01 -0.2697874E+01  0.5548775E-01  0.2637505E-01
 -0.5185360E+01 -0.9701130E+01 -0.2310450E+00  0.5871525E-01 -0.3027804E+01  0.5833554E-01  0.6666724E-02
 -0.4209510E+01 -0.1016270E+02 -0.2310450E+00  0.6294317E-01  0.2944660E+01  0.6172656E-01 -0.1231561E-01
 -0.3193130E+01 -0.1052630E+02 -0.2310450E+00  0.7230232E-01  0.2706276E+01  0.6555914E-01 -0.3048974E-01
 -0.2145990E+01 -0.1078860E+02 -0.2310450E+00  0.8443838E-01  0.2542296E+01  0.6972351E-01 -0.4762848E-01
 -0.1078190E+01 -0.1094700E+02 -0.2310450E+00  0.9773034E-01  0.2430801E+01  0.7406453E-01 -0.6376257E-01
  0.1311740E-06 -0.1100000E+02 -0.2310450E+00  0.1109369E+00  0.2356269E+01  0.7845014E-01 -0.7843839E-01
  0.1078190E+01 -0.1094700E+02 -0.2310450E+00  0.1235139E+00  0.2304932E+01  0.8274765E-01 -0.9169798E-01
  0.2145990E+01 -0.1078860E+02 -0.2310450E+00  0.1349376E+00  0.2269637E+01  0.8680944E-01 -0.1033067E+00
  0.3193140E+01 -0.1052630E+02 -0.2310450E+00  0.1451851E+00  0.2244060E+01  0.9052885E-01 -0.1135044E+00
  0.4209520E+01 -0.1016270E+02 -0.2310450E+00  0.1536973E+00  0.2226712E+01  0.9373772E-01 -0.1218035E+00
  0.5185360E+01 -0.9701130E+01 -0.2310450E+00  0.1604927E+00  0.2214734E+01  0.9635167E-01 -0.1283522E+00
  0.6111270E+01 -0.9146160E+01 -0.2310450E+00  0.1653008E+00  0.2207380E+01  0.9826335E-01 -0.1329235E+00
  0.6978330E+01 -0.8503110E+01 -0.2310450E+00  0.1684209E+00  0.2202655E+01  0.9947705E-01 -0.1359040E+00
  0.7778180E+01 -0.7778170E+01 -0.2310450E+00  0.1694054E+00  0.2201333E+01  0.9987772E-01 -0.1368306E+00
  0.8503120E+01 -0.6978320E+01 -0.2310450E+00  0.1684209E+00  0.2202655E+01  0.9947709E-01 -0.1359040E+00
  0.9146170E+01 -0.6111270E+01 -0.2310450E+00  0.1653007E+00  0.2207380E+01  0.9826331E-01 -0.1329234E+00
  0.9701130E+01 -0.5185360E+01 -0.2310450E+00  0.1604928E+00  0.2214733E+01  0.9635165E-01 -0.1283522E+00
  0.1016270E+02 -0.4209520E+01 -0.2310450E+00  0.1536973E+00  0.2226712E+01  0.9373774E-01 -0.1218036E+00
  0.1052630E+02 -0.3193130E+01 -0.2310450E+00  0.1451852E+00  0.2244060E+01  0.9052894E-01 -0.1135044E+00
  0.1078860E+02 -0.2145990E+01 -0.2310450E+00  0.1349378E+00  0.2269635E+01  0.8680940E-01 -0.1033070E+00
  0.1094700E+02 -0.1078180E+01 -0.2310450E+00  0.1235140E+00  0.2304932E+01  0.8274761E-01 -0.9169805E-01
  0.1100000E+02  0.0000000E+00 -0.4105000E+00  0.1104339E+00  0.2355871E+01  0.7806330E-01 -0.7811379E-01
  0.1094700E+02  0.1078190E+01 -0.4105000E+00  0.9729165E-01  0.2430258E+01  0.7369754E-01 -0.6351643E-01
  0.1078860E+02  0.2145990E+01 -0.4105000E+00  0.8407360E-01  0.2541291E+01  0.6937461E-01 -0.4749246E-01
  0.1052630E+02  0.3193130E+01 -0.4105000E+00  0.7196684E-01  0.2705544E+01  0.6523274E-01 -0.3039598E-01
  0.1016270E+02  0.4209520E+01 -0.4105000E+00  0.6263712E-01  0.2944091E+01  0.6141945E-01 -0.1229064E-01
  0.9701130E+01  0.5185360E+01 -0.4105000E+00  0.5841552E-01 -0.3028334E+01  0.5804125E-01  0.6601934E-02
  0.9146170E+01  0.6111270E+01 -0.4105000E+00  0.6110390E-01 -0.2698322E+01  0.5519845E-01  0.2620722E-01
  0.8503110E+01  0.6978330E+01 -0.4105000E+00  0.7026703E-01 -0.2424030E+01  0.5293992E-01  0.4620412E-01
  0.7778170E+01  0.7778170E+01 -0.4105000E+00  0.8392186E-01 -0.2229289E+01  0.5135391E-01  0.6637511E-01
  0.6978330E+01  0.8503110E+01 -0.4105000E+00  0.1001783E+00 -0.2098578E+01  0.5045161E-01  0.8654663E-01
  0.6111270E+01  0.9146170E+01 -0.4105000E+00  0.1177976E+00 -0.2011446E+01  0.5024389E-01  0.1065449E+00
  0.5185360E+01  0.9701130E+01 -0.4105000E+00  0.1359473E+00 -0.1952707E+01  0.5066672E-01  0.1261529E+00
  0.4209520E+01  0.1016270E+02 -0.4105000E+00  0.1539874E+00 -0.1913188E+01  0.5169990E-01  0.1450491E+00
  0.3193130E+01  0.1052630E+02 -0.4105000E+00  0.1716315E+00 -0.1886324E+01  0.5326034E-01  0.1631586E+00
  0.2145990E+01  0.1078860E+02 -0.4105000E+00  0.1885411E+00 -0.1868285E+01  0.5526520E-01  0.1802596E+00
  0.1078190E+01  0.1094700E+02 -0.4105000E+00  0.2045609E+00 -0.1856149E+01  0.5758298E-01  0.1962890E+00
 -0.4808250E-06  0.1100000E+02 -0.4105000E+00  0.2192895E+00 -0.1848435E+01  0.6010413E-01  0.2108918E+00
 -0.1078190E+01  0.1094700E+02 -0.4105000E+00  0.2327232E+00 -0.1843626E+01  0.6270903E-01  0.2241153E+00
 -0.2145990E+01  0.1078860E+02 -0.4105000E+00  0.2446002E+00 -0.1840931E+01  0.6527432E-01  0.2357298E+00
 -0.3193130E+01  0.1052630E+02 -0.4105000E+00  0.2549795E+00 -0.1839472E+01  0.6768554E-01  0.2458316E+00
 -0.4209520E+01  0.1016270E+02 -0.4105000E+00  0.2634970E+00 -0.1838948E+01  0.6981353E-01  0.2540801E+00
 -0.5185370E+01  0.9701130E+01 -0.4105000E+00  0.2702736E+00 -0.1838830E+01  0.7157823E-01  0.2606230E+00
 -0.6111270E+01  0.9146160E+01 -0.4105000E+00  0.2750717E+00 -0.1838984E+01  0.7288962E-01  0.2652386E+00
 -0.6978330E+01  0.8503120E+01 -0.4105000E+00  0.2780926E+00 -0.1839084E+01  0.7371700E-01  0.2681441E+00
 -0.7778170E+01  0.7778170E+01 -0.4105000E+00  0.2790357E+00 -0.1839174E+01  0.7399112E-01  0.2690469E+00