 VARIABLES="X" "Y" "Z" "abs(eta) (m)" "angle(phi) (rad)" "PRE1" "PRE2"
ZONE N=   3200 ,E =    3136 ,F=FEPOINT,ET=QUADRILATERAL
  0.1100000E+02  0.0000000E+00  0.0000000E+00  0.3579525E+00 -0.1804909E+01  0.8303791E-01  0.3481877E+00
  0.1094700E+02  0.1078190E+01  0.0000000E+00  0.3610064E+00 -0.1805331E+01  0.8389460E-01  0.3511230E+00
  0.1078860E+02  0.2145990E+01  0.0000000E+00  0.3617498E+00 -0.1805259E+01  0.8404166E-01  0.3518521E+00
  0.1052630E+02  0.3193130E+01  0.0000000E+00  0.3590300E+00 -0.1804951E+01  0.8330252E-01  0.3492323E+00
  0.1016270E+02  0.4209520E+01  0.0000000E+00  0.3540311E+00 -0.1804214E+01  0.8188865E-01  0.3444304E+00
  0.9701130E+01  0.5185360E+01  0.0000000E+00  0.3473256E+00 -0.1803004E+01  0.7992867E-01  0.3380036E+00
  0.9146170E+01  0.6111270E+01  0.0000000E+00  0.3383310E+00 -0.1801622E+01  0.7740370E-01  0.3293577E+00
  0.8503110E+01  0.6978330E+01  0.0000000E+00  0.3261687E+00 -0.1800807E+01  0.7436238E-01  0.3175787E+00
  0.7778170E+01  0.7778170E+01  0.0000000E+00  0.3120805E+00 -0.1800642E+01  0.7110047E-01  0.3038733E+00
  0.6978330E+01  0.8503110E+01  0.0000000E+00  0.2965398E+00 -0.1801323E+01  0.6775654E-01  0.2886952E+00
  0.6111270E+01  0.9146170E+01  0.0000000E+00  0.2790813E+00 -0.1803749E+01  0.6442629E-01  0.2715431E+00
  0.5185360E+01  0.9701130E+01  0.0000000E+00  0.2592716E+00 -0.1809719E+01  0.6135819E-01  0.2519066E+00
  0.4209520E+01  0.1016270E+02  0.0000000E+00  0.2382563E+00 -0.1819966E+01  0.5875377E-01  0.2308984E+00
  0.3193130E+01  0.1052630E+02  0.0000000E+00  0.2163950E+00 -0.1835823E+01  0.5668140E-01  0.2088397E+00
  0.2145990E+01  0.1078860E+02  0.0000000E+00  0.1934948E+00 -0.1860589E+01  0.5529190E-01  0.1854266E+00
  0.1078190E+01  0.1094700E+02  0.0000000E+00  0.1697949E+00 -0.1899915E+01  0.5487933E-01  0.1606816E+00
 -0.4808250E-06  0.1100000E+02  0.0000000E+00  0.1463632E+00 -0.1959131E+01  0.5542007E-01  0.1354651E+00
 -0.1078190E+01  0.1094700E+02  0.0000000E+00  0.1237522E+00 -0.2048224E+01  0.5686364E-01  0.1099142E+00
 -0.2145990E+01  0.1078860E+02  0.0000000E+00  0.1028169E+00 -0.2185742E+01  0.5931651E-01  0.8398138E-01
 -0.3193130E+01  0.1052630E+02  0.0000000E+00  0.8571289E-01 -0.2395069E+01  0.6291792E-01  0.5820684E-01
 -0.4209520E+01  0.1016270E+02  0.0000000E+00  0.7507814E-01 -0.2686048E+01  0.6742177E-01  0.3303077E-01
 -0.5185370E+01  0.9701130E+01  0.0000000E+00  0.7316251E-01 -0.3027209E+01  0.7268442E-01  0.8350334E-02
 -0.6111270E+01  0.9146160E+01  0.0000000E+00  0.8023100E-01  0.2945236E+01  0.7868928E-01 -0.1565281E-01
 -0.6978330E+01  0.8503120E+01  0.0000000E+00  0.9340909E-01  0.2722075E+01  0.8530919E-01 -0.3804735E-01
 -0.7778170E+01  0.7778170E+01  0.0000000E+00  0.1094452E+00  0.2572978E+01  0.9222375E-01 -0.5893239E-01
 -0.8503120E+01  0.6978330E+01  0.0000000E+00  0.1266669E+00  0.2471611E+01  0.9928572E-01 -0.7865651E-01
 -0.9146170E+01  0.6111270E+01  0.0000000E+00  0.1438573E+00  0.2402830E+01  0.1063540E+00 -0.9686978E-01
 -0.9701130E+01  0.5185360E+01  0.0000000E+00  0.1594563E+00  0.2359098E+01  0.1130795E+00 -0.1124248E+00
 -0.1016270E+02  0.4209520E+01  0.0000000E+00  0.1734469E+00  0.2329036E+01  0.1192698E+00 -0.1259307E+00
 -0.1052630E+02  0.3193130E+01  0.0000000E+00  0.1860543E+00  0.2306575E+01  0.1248731E+00 -0.1379236E+00
 -0.1078860E+02  0.2145990E+01  0.0000000E+00  0.1967234E+00  0.2290610E+01  0.1296888E+00 -0.1479219E+00
 -0.1094700E+02  0.1078190E+01  0.0000000E+00  0.2042226E+00  0.2282032E+01  0.1333104E+00 -0.1547101E+00
 -0.1100000E+02 -0.9616510E-06  0.0000000E+00  0.2093090E+00  0.2276838E+01  0.1358053E+00 -0.1592708E+00
 -0.1094700E+02 -0.1078190E+01  0.0000000E+00  0.2124823E+00  0.2273078E+01  0.1372553E+00 -0.1622027E+00
 -0.1078860E+02 -0.2146000E+01  0.0000000E+00  0.2131950E+00  0.2271716E+01  0.1374940E+00 -0.1629341E+00
 -0.1052630E+02 -0.3193130E+01  0.0000000E+00  0.2103941E+00  0.2275229E+01  0.1362515E+00 -0.1603160E+00
 -0.1016270E+02 -0.4209520E+01  0.0000000E+00  0.2051807E+00  0.2281399E+01  0.1338374E+00 -0.1555207E+00
 -0.9701130E+01 -0.5185360E+01  0.0000000E+00  0.1981062E+00  0.2289490E+01  0.1304336E+00 -0.1491079E+00
 -0.9146160E+01 -0.6111270E+01  0.0000000E+00  0.1886975E+00  0.2301842E+01  0.1259836E+00 -0.1404809E+00
 -0.8503110E+01 -0.6978330E+01  0.0000000E+00  0.1763031E+00  0.2323130E+01  0.1204758E+00 -0.1287182E+00
 -0.7778170E+01 -0.7778180E+01  0.0000000E+00  0.1621788E+00  0.2353095E+01  0.1143217E+00 -0.1150326E+00
 -0.6978330E+01 -0.8503110E+01  0.0000000E+00  0.1468969E+00  0.2393929E+01  0.1077165E+00 -0.9987921E-01
 -0.6111270E+01 -0.9146170E+01  0.0000000E+00  0.1303690E+00  0.2453895E+01  0.1007374E+00 -0.8275296E-01
 -0.5185360E+01 -0.9701130E+01  0.0000000E+00  0.1129171E+00  0.2548235E+01  0.9361593E-01 -0.6313730E-01
 -0.4209510E+01 -0.1016270E+02  0.0000000E+00  0.9637309E-01  0.2688941E+01  0.8666742E-01 -0.4214892E-01
 -0.3193130E+01 -0.1052630E+02  0.0000000E+00  0.8250199E-01  0.2895340E+01  0.8001313E-01 -0.2011161E-01
 -0.2145990E+01 -0.1078860E+02  0.0000000E+00  0.7387936E-01 -0.3097153E+01  0.7380642E-01  0.3282066E-02
 -0.1078190E+01 -0.1094700E+02  0.0000000E+00  0.7388811E-01 -0.2752691E+01  0.6837060E-01  0.2801631E-01
  0.1311740E-06 -0.1100000E+02  0.0000000E+00  0.8306907E-01 -0.2446139E+01  0.6377738E-01  0.5322514E-01
  0.1078190E+01 -0.1094700E+02  0.0000000E+00  0.9902769E-01 -0.2221881E+01  0.6001567E-01  0.7876929E-01
  0.2145990E+01 -0.1078860E+02  0.0000000E+00  0.1193131E+00 -0.2070936E+01  0.5721641E-01  0.1046991E+00
  0.3193140E+01 -0.1052630E+02  0.0000000E+00  0.1418285E+00 -0.1973543E+01  0.5558924E-01  0.1304805E+00
  0.4209520E+01 -0.1016270E+02  0.0000000E+00  0.1650806E+00 -0.1910144E+01  0.5495065E-01  0.1556664E+00
  0.5185360E+01 -0.9701130E+01  0.0000000E+00  0.1886090E+00 -0.1867685E+01  0.5517683E-01  0.1803576E+00
  0.6111270E+01 -0.9146160E+01  0.0000000E+00  0.2119861E+00 -0.1839577E+01  0.5629424E-01  0.2043748E+00
  0.6978330E+01 -0.8503110E+01  0.0000000E+00  0.2341587E+00 -0.1822315E+01  0.5827620E-01  0.2267911E+00
  0.7778180E+01 -0.7778170E+01  0.0000000E+00  0.2550570E+00 -0.1811580E+01  0.6082194E-01  0.2476990E+00
  0.8503120E+01 -0.6978320E+01  0.0000000E+00  0.2749450E+00 -0.1804915E+01  0.6378337E-01  0.2674443E+00
  0.9146170E+01 -0.6111270E+01  0.0000000E+00  0.2934467E+00 -0.1801405E+01  0.6707319E-01  0.2856784E+00
  0.9701130E+01 -0.5185360E+01  0.0000000E+00  0.3093881E+00 -0.1800543E+01  0.7045734E-01  0.3012586E+00
  0.1016270E+02 -0.4209520E+01  0.0000000E+00  0.3233048E+00 -0.1800833E+01  0.7371777E-01  0.3147883E+00
  0.1052630E+02 -0.3193130E+01  0.0000000E+00  0.3356977E+00 -0.1801559E+01  0.7678082E-01  0.3267990E+00
  0.1078860E+02 -0.2145990E+01  0.0000000E+00  0.3460677E+00 -0.1802595E+01  0.7950159E-01  0.3368121E+00
  0.1094700E+02 -0.1078180E+01  0.0000000E+00  0.3531688E+00 -0.1803918E+01  0.8158755E-01  0.3436155E+00
  0.1100000E+02  0.0000000E+00 -0.2568960E-01  0.3576410E+00 -0.1804913E+01  0.8296695E-01  0.3478844E+00
  0.1094700E+02  0.1078190E+01 -0.2568960E-01  0.3606779E+00 -0.1805339E+01  0.8382081E-01  0.3508028E+00
  0.1078860E+02  0.2145990E+01 -0.2568960E-01  0.3614045E+00 -0.1805269E+01  0.8396520E-01  0.3515154E+00
  0.1052630E+02  0.3193130E+01 -0.2568960E-01  0.3587037E+00 -0.1804959E+01  0.8322938E-01  0.3489143E+00
  0.1016270E+02  0.4209520E+01 -0.2568960E-01  0.3537233E+00 -0.1804217E+01  0.8181842E-01  0.3441307E+00
  0.9701130E+01  0.5185360E+01 -0.2568960E-01  0.3470089E+00 -0.1803010E+01  0.7985781E-01  0.3376949E+00
  0.9146170E+01  0.6111270E+01 -0.2568960E-01  0.3380080E+00 -0.1801634E+01  0.7733383E-01  0.3290424E+00
  0.8503110E+01  0.6978330E+01 -0.2568960E-01  0.3258725E+00 -0.1800814E+01  0.7429713E-01  0.3172899E+00
  0.7778170E+01  0.7778170E+01 -0.2568960E-01  0.3118081E+00 -0.1800640E+01  0.7103790E-01  0.3036081E+00
  0.6978330E+01  0.8503110E+01 -0.2568960E-01  0.2962678E+00 -0.1801328E+01  0.6769579E-01  0.2884301E+00
  0.6111270E+01  0.9146170E+01 -0.2568960E-01  0.2788155E+00 -0.1803765E+01  0.6436924E-01  0.2712834E+00
  0.5185360E+01  0.9701130E+01 -0.2568960E-01  0.2590367E+00 -0.1809724E+01  0.6130388E-01  0.2516780E+00
  0.4209520E+01  0.1016270E+02 -0.2568960E-01  0.2380462E+00 -0.1819956E+01  0.5869962E-01  0.2306953E+00
  0.3193130E+01  0.1052630E+02 -0.2568960E-01  0.2161952E+00 -0.1835826E+01  0.5662972E-01  0.2086467E+00
  0.2145990E+01  0.1078860E+02 -0.2568960E-01  0.1933123E+00 -0.1860613E+01  0.5524407E-01  0.1852504E+00
  0.1078190E+01  0.1094700E+02 -0.2568960E-01  0.1696408E+00 -0.1899917E+01  0.5482974E-01  0.1605357E+00
 -0.4808250E-06  0.1100000E+02 -0.2568960E-01  0.1462293E+00 -0.1959116E+01  0.5536725E-01  0.1353420E+00
 -0.1078190E+01  0.1094700E+02 -0.2568960E-01  0.1236358E+00 -0.2048239E+01  0.5681175E-01  0.1098100E+00
 -0.2145990E+01  0.1078860E+02 -0.2568960E-01  0.1027234E+00 -0.2185770E+01  0.5926492E-01  0.8390328E-01
 -0.3193130E+01  0.1052630E+02 -0.2568960E-01  0.8563422E-01 -0.2395075E+01  0.6286049E-01  0.5815306E-01
 -0.4209520E+01  0.1016270E+02 -0.2568960E-01  0.7500544E-01 -0.2686114E+01  0.6735869E-01  0.3299430E-01
 -0.5185370E+01  0.9701130E+01 -0.2568960E-01  0.7309615E-01 -0.3027276E+01  0.7261904E-01  0.8337946E-02
 -0.6111270E+01  0.9146160E+01 -0.2568960E-01  0.8015890E-01  0.2945289E+01  0.7861939E-01 -0.1563462E-01
 -0.6978330E+01  0.8503120E+01 -0.2568960E-01  0.9332491E-01  0.2722057E+01  0.8523160E-01 -0.3801464E-01
 -0.7778170E+01  0.7778170E+01 -0.2568960E-01  0.1093528E+00  0.2572885E+01  0.9214041E-01 -0.5889123E-01
 -0.8503120E+01  0.6978330E+01 -0.2568960E-01  0.1265560E+00  0.2471590E+01  0.9919708E-01 -0.7858976E-01
 -0.9146170E+01  0.6111270E+01 -0.2568960E-01  0.1437208E+00  0.2402877E+01  0.1062577E+00 -0.9677280E-01
 -0.9701130E+01  0.5185360E+01 -0.2568960E-01  0.1593140E+00  0.2359089E+01  0.1129776E+00 -0.1123255E+00
 -0.1016270E+02  0.4209520E+01 -0.2568960E-01  0.1733035E+00  0.2328984E+01  0.1191647E+00 -0.1258328E+00
 -0.1052630E+02  0.3193130E+01 -0.2568960E-01  0.1858903E+00  0.2306568E+01  0.1247620E+00 -0.1378029E+00
 -0.1078860E+02  0.2145990E+01 -0.2568960E-01  0.1965346E+00  0.2290647E+01  0.1295698E+00 -0.1477752E+00
 -0.1094700E+02  0.1078190E+01 -0.2568960E-01  0.2040406E+00  0.2282028E+01  0.1331910E+00 -0.1545728E+00
 -0.1100000E+02 -0.9616510E-06 -0.2568960E-01  0.2091363E+00  0.2276802E+01  0.1356875E+00 -0.1591442E+00
 -0.1094700E+02 -0.1078190E+01 -0.2568960E-01  0.2122936E+00  0.2273074E+01  0.1371327E+00 -0.1620592E+00
 -0.1078860E+02 -0.2146000E+01 -0.2568960E-01  0.2129905E+00  0.2271751E+01  0.1373677E+00 -0.1627731E+00
 -0.1052630E+02 -0.3193130E+01 -0.2568960E-01  0.2102072E+00  0.2275224E+01  0.1361297E+00 -0.1601742E+00
 -0.1016270E+02 -0.4209520E+01 -0.2568960E-01  0.2050112E+00  0.2281362E+01  0.1337211E+00 -0.1553971E+00
 -0.9701130E+01 -0.5185360E+01 -0.2568960E-01  0.1979294E+00  0.2289486E+01  0.1303165E+00 -0.1489754E+00
 -0.9146160E+01 -0.6111270E+01 -0.2568960E-01  0.1885170E+00  0.2301878E+01  0.1258682E+00 -0.1403420E+00
 -0.8503110E+01 -0.6978330E+01 -0.2568960E-01  0.1761478E+00  0.2323121E+01  0.1203684E+00 -0.1286059E+00
 -0.7778170E+01 -0.7778180E+01 -0.2568960E-01  0.1620446E+00  0.2353040E+01  0.1142209E+00 -0.1149437E+00
 -0.6978330E+01 -0.8503110E+01 -0.2568960E-01  0.1467654E+00  0.2393921E+01  0.1076192E+00 -0.9979066E-01
 -0.6111270E+01 -0.9146170E+01 -0.2568960E-01  0.1302457E+00  0.2453945E+01  0.1006462E+00 -0.8266968E-01
 -0.5185360E+01 -0.9701130E+01 -0.2568960E-01  0.1128182E+00  0.2548207E+01  0.9353215E-01 -0.6308472E-01
 -0.4209510E+01 -0.1016270E+02 -0.2568960E-01  0.9629054E-01  0.2688836E+01  0.8658873E-01 -0.4212195E-01
 -0.3193130E+01 -0.1052630E+02 -0.2568960E-01  0.8242716E-01  0.2895321E+01  0.7994018E-01 -0.2009487E-01
 -0.2145990E+01 -0.1078860E+02 -0.2568960E-01  0.7381416E-01 -0.3097115E+01  0.7374116E-01  0.3281997E-02
 -0.1078190E+01 -0.1094700E+02 -0.2568960E-01  0.7381950E-01 -0.2752752E+01  0.6830883E-01  0.2798612E-01
  0.1311740E-06 -0.1100000E+02 -0.2568960E-01  0.8298855E-01 -0.2446169E+01  0.6371713E-01  0.5317166E-01
  0.1078190E+01 -0.1094700E+02 -0.2568960E-01  0.9893710E-01 -0.2221882E+01  0.5996089E-01  0.7869715E-01
  0.2145990E+01 -0.1078860E+02 -0.2568960E-01  0.1192032E+00 -0.2070966E+01  0.5716680E-01  0.1046009E+00
  0.3193140E+01 -0.1052630E+02 -0.2568960E-01  0.1416958E+00 -0.1973554E+01  0.5553864E-01  0.1303578E+00
  0.4209520E+01 -0.1016270E+02 -0.2568960E-01  0.1649313E+00 -0.1910127E+01  0.5489840E-01  0.1555265E+00
  0.5185360E+01 -0.9701130E+01 -0.2568960E-01  0.1884377E+00 -0.1867687E+01  0.5512710E-01  0.1801937E+00
  0.6111270E+01 -0.9146160E+01 -0.2568960E-01  0.2117854E+00 -0.1839598E+01  0.5624527E-01  0.2041802E+00
  0.6978330E+01 -0.8503110E+01 -0.2568960E-01  0.2339432E+00 -0.1822318E+01  0.5822339E-01  0.2265821E+00
  0.7778180E+01 -0.7778170E+01 -0.2568960E-01  0.2548325E+00 -0.1811573E+01  0.6076653E-01  0.2474814E+00
  0.8503120E+01 -0.6978320E+01 -0.2568960E-01  0.2746958E+00 -0.1804922E+01  0.6372727E-01  0.2672015E+00
  0.9146170E+01 -0.6111270E+01 -0.2568960E-01  0.2931674E+00 -0.1801420E+01  0.6701349E-01  0.2854055E+00
  0.9701130E+01 -0.5185360E+01 -0.2568960E-01  0.3091051E+00 -0.1800547E+01  0.7039404E-01  0.3009828E+00
  0.1016270E+02 -0.4209520E+01 -0.2568960E-01  0.3230228E+00 -0.1800833E+01  0.7365334E-01  0.3145138E+00
  0.1052630E+02 -0.3193130E+01 -0.2568960E-01  0.3353928E+00 -0.1801566E+01  0.7671338E-01  0.3265018E+00
  0.1078860E+02 -0.2145990E+01 -0.2568960E-01  0.3457367E+00 -0.1802607E+01  0.7942967E-01  0.3364889E+00
  0.1094700E+02 -0.1078180E+01 -0.2568960E-01  0.3528470E+00 -0.1803924E+01  0.8151524E-01  0.3433020E+00
  0.1100000E+02  0.0000000E+00 -0.1027320E+00  0.3566879E+00 -0.1804959E+01  0.8276174E-01  0.3469535E+00
  0.1094700E+02  0.1078190E+01 -0.1027320E+00  0.3596799E+00 -0.1805394E+01  0.8360813E-01  0.3498275E+00
  0.1078860E+02  0.2145990E+01 -0.1027320E+00  0.3603607E+00 -0.1805336E+01  0.8374596E-01  0.3504945E+00
  0.1052630E+02  0.3193130E+01 -0.1027320E+00  0.3577115E+00 -0.1805013E+01  0.8301822E-01  0.3479446E+00
  0.1016270E+02  0.4209520E+01 -0.1027320E+00  0.3527797E+00 -0.1804260E+01  0.8161514E-01  0.3432091E+00
  0.9701130E+01  0.5185360E+01 -0.1027320E+00  0.3460467E+00 -0.1803058E+01  0.7965273E-01  0.3367547E+00
  0.9146170E+01  0.6111270E+01 -0.1027320E+00  0.3370326E+00 -0.1801696E+01  0.7713110E-01  0.3280880E+00
  0.8503110E+01  0.6978330E+01 -0.1027320E+00  0.3249719E+00 -0.1800857E+01  0.7410565E-01  0.3164097E+00
  0.7778170E+01  0.7778170E+01 -0.1027320E+00  0.3109741E+00 -0.1800659E+01  0.7085357E-01  0.3027947E+00
  0.6978330E+01  0.8503110E+01 -0.1027320E+00  0.2954441E+00 -0.1801355E+01  0.6751545E-01  0.2876263E+00
  0.6111270E+01  0.9146170E+01 -0.1027320E+00  0.2780137E+00 -0.1803816E+01  0.6419807E-01  0.2704999E+00
  0.5185360E+01  0.9701130E+01 -0.1027320E+00  0.2583220E+00 -0.1809741E+01  0.6113887E-01  0.2509826E+00
  0.4209520E+01  0.1016270E+02 -0.1027320E+00  0.2374039E+00 -0.1819929E+01  0.5853512E-01  0.2300745E+00
  0.3193130E+01  0.1052630E+02 -0.1027320E+00  0.2155900E+00 -0.1835825E+01  0.5647109E-01  0.2080627E+00
  0.2145990E+01  0.1078860E+02 -0.1027320E+00  0.1927610E+00 -0.1860653E+01  0.5509391E-01  0.1847200E+00
  0.1078190E+01  0.1094700E+02 -0.1027320E+00  0.1691718E+00 -0.1899893E+01  0.5467440E-01  0.1600931E+00
 -0.4808250E-06  0.1100000E+02 -0.1027320E+00  0.1458236E+00 -0.1959035E+01  0.5520276E-01  0.1349711E+00
 -0.1078190E+01  0.1094700E+02 -0.1027320E+00  0.1232845E+00 -0.2048225E+01  0.5664884E-01  0.1094988E+00
 -0.2145990E+01  0.1078860E+02 -0.1027320E+00  0.1024387E+00 -0.2185784E+01  0.5910183E-01  0.8367000E-01
 -0.3193130E+01  0.1052630E+02 -0.1027320E+00  0.8539393E-01 -0.2395014E+01  0.6268056E-01  0.5799370E-01
 -0.4209520E+01  0.1016270E+02 -0.1027320E+00  0.7478386E-01 -0.2686206E+01  0.6716272E-01  0.3289065E-01
 -0.5185370E+01  0.9701130E+01 -0.1027320E+00  0.7289097E-01 -0.3027377E+01  0.7241605E-01  0.8307191E-02
 -0.6111270E+01  0.9146160E+01 -0.1027320E+00  0.7993614E-01  0.2945487E+01  0.7840399E-01 -0.1557561E-01
 -0.6978330E+01  0.8503120E+01 -0.1027320E+00  0.9306572E-01  0.2722059E+01  0.8499496E-01 -0.3790889E-01
 -0.7778170E+01  0.7778170E+01 -0.1027320E+00  0.1090662E+00  0.2572699E+01  0.9188794E-01 -0.5875402E-01
 -0.8503120E+01  0.6978330E+01 -0.1027320E+00  0.1262151E+00  0.2471586E+01  0.9892958E-01 -0.7837848E-01
 -0.9146170E+01  0.6111270E+01 -0.1027320E+00  0.1433069E+00  0.2403058E+01  0.1059691E+00 -0.9647495E-01
 -0.9701130E+01  0.5185360E+01 -0.1027320E+00  0.1588791E+00  0.2359131E+01  0.1126738E+00 -0.1120141E+00
 -0.1016270E+02  0.4209520E+01 -0.1027320E+00  0.1728609E+00  0.2328925E+01  0.1188529E+00 -0.1255184E+00
 -0.1052630E+02  0.3193130E+01 -0.1027320E+00  0.1853891E+00  0.2306620E+01  0.1244328E+00 -0.1374250E+00
 -0.1078860E+02  0.2145990E+01 -0.1027320E+00  0.1959665E+00  0.2290813E+01  0.1292198E+00 -0.1473265E+00
 -0.1094700E+02  0.1078190E+01 -0.1027320E+00  0.2034873E+00  0.2282091E+01  0.1328395E+00 -0.1541452E+00
 -0.1100000E+02 -0.9616510E-06 -0.1027320E+00  0.2086034E+00  0.2276788E+01  0.1353395E+00 -0.1587407E+00
 -0.1094700E+02 -0.1078190E+01 -0.1027320E+00  0.2117196E+00  0.2273141E+01  0.1367729E+00 -0.1616118E+00
 -0.1078860E+02 -0.2146000E+01 -0.1027320E+00  0.2123747E+00  0.2271916E+01  0.1369973E+00 -0.1622798E+00
 -0.1052630E+02 -0.3193130E+01 -0.1027320E+00  0.2096396E+00  0.2275291E+01  0.1357728E+00 -0.1597326E+00
 -0.1016270E+02 -0.4209520E+01 -0.1027320E+00  0.2044893E+00  0.2281342E+01  0.1333777E+00 -0.1550041E+00
 -0.9701130E+01 -0.5185360E+01 -0.1027320E+00  0.1973924E+00  0.2289546E+01  0.1299720E+00 -0.1485633E+00
 -0.9146160E+01 -0.6111270E+01 -0.1027320E+00  0.1879720E+00  0.2302047E+01  0.1255279E+00 -0.1399150E+00
 -0.8503110E+01 -0.6978330E+01 -0.1027320E+00  0.1756732E+00  0.2323168E+01  0.1200501E+00 -0.1282538E+00
 -0.7778170E+01 -0.7778180E+01 -0.1027320E+00  0.1616298E+00  0.2352963E+01  0.1139196E+00 -0.1146583E+00
 -0.6978330E+01 -0.8503110E+01 -0.1027320E+00  0.1463643E+00  0.2393953E+01  0.1073283E+00 -0.9951451E-01
 -0.6111270E+01 -0.9146170E+01 -0.1027320E+00  0.1298715E+00  0.2454133E+01  0.1003725E+00 -0.8241337E-01
 -0.5185360E+01 -0.9701130E+01 -0.1027320E+00  0.1125138E+00  0.2548183E+01  0.9327835E-01 -0.6291674E-01
 -0.4209510E+01 -0.1016270E+02 -0.1027320E+00  0.9603389E-01  0.2688615E+01  0.8634867E-01 -0.4202875E-01
 -0.3193130E+01 -0.1052630E+02 -0.1027320E+00  0.8219668E-01  0.2895322E+01  0.7971668E-01 -0.2003861E-01
 -0.2145990E+01 -0.1078860E+02 -0.1027320E+00  0.7361232E-01 -0.3096946E+01  0.7353897E-01  0.3285434E-02
 -0.1078190E+01 -0.1094700E+02 -0.1027320E+00  0.7360937E-01 -0.2752833E+01  0.6811663E-01  0.2790099E-01
  0.1311740E-06 -0.1100000E+02 -0.1027320E+00  0.8274467E-01 -0.2446171E+01  0.6353001E-01  0.5301526E-01
  0.1078190E+01 -0.1094700E+02 -0.1027320E+00  0.9866092E-01 -0.2221822E+01  0.5978877E-01  0.7848108E-01
  0.2145990E+01 -0.1078860E+02 -0.1027320E+00  0.1188700E+00 -0.2070993E+01  0.5700979E-01  0.1043070E+00
  0.3193140E+01 -0.1052630E+02 -0.1027320E+00  0.1412950E+00 -0.1973536E+01  0.5537926E-01  0.1299901E+00
  0.4209520E+01 -0.1016270E+02 -0.1027320E+00  0.1644778E+00 -0.1910055E+01  0.5473631E-01  0.1551028E+00
  0.5185360E+01 -0.9701130E+01 -0.1027320E+00  0.1879175E+00 -0.1867672E+01  0.5497226E-01  0.1796971E+00
  0.6111270E+01 -0.9146160E+01 -0.1027320E+00  0.2111799E+00 -0.1839641E+01  0.5609323E-01  0.2035940E+00
  0.6978330E+01 -0.8503110E+01 -0.1027320E+00  0.2332897E+00 -0.1822323E+01  0.5806178E-01  0.2259489E+00
  0.7778180E+01 -0.7778170E+01 -0.1027320E+00  0.2541468E+00 -0.1811556E+01  0.6059892E-01  0.2468164E+00
  0.8503120E+01 -0.6978320E+01 -0.1027320E+00  0.2739377E+00 -0.1804944E+01  0.6355737E-01  0.2664626E+00
  0.9146170E+01 -0.6111270E+01 -0.1027320E+00  0.2923231E+00 -0.1801473E+01  0.6683582E-01  0.2845800E+00
  0.9701130E+01 -0.5185360E+01 -0.1027320E+00  0.3082465E+00 -0.1800580E+01  0.7020833E-01  0.3001445E+00
  0.1016270E+02 -0.4209520E+01 -0.1027320E+00  0.3221598E+00 -0.1800857E+01  0.7346436E-01  0.3136717E+00
  0.1052630E+02 -0.3193130E+01 -0.1027320E+00  0.3344665E+00 -0.1801613E+01  0.7651672E-01  0.3255965E+00
  0.1078860E+02 -0.2145990E+01 -0.1027320E+00  0.3447387E+00 -0.1802670E+01  0.7922145E-01  0.3355127E+00
  0.1094700E+02 -0.1078180E+01 -0.1027320E+00  0.3518692E+00 -0.1803975E+01  0.8130673E-01  0.3423465E+00
  0.1100000E+02  0.0000000E+00 -0.2310450E+00  0.3552258E+00 -0.1804940E+01  0.8241586E-01  0.3455329E+00
  0.1094700E+02  0.1078190E+01 -0.2310450E+00  0.3581406E+00 -0.1805392E+01  0.8324978E-01  0.3483305E+00
  0.1078860E+02  0.2145990E+01 -0.2310450E+00  0.3587404E+00 -0.1805351E+01  0.8337479E-01  0.3489174E+00
  0.1052630E+02  0.3193130E+01 -0.2310450E+00  0.3561809E+00 -0.1805011E+01  0.8266227E-01  0.3464560E+00
  0.1016270E+02  0.4209520E+01 -0.2310450E+00  0.3513330E+00 -0.1804238E+01  0.8127284E-01  0.3418035E+00
  0.9701130E+01  0.5185360E+01 -0.2310450E+00  0.3445601E+00 -0.1803047E+01  0.7930671E-01  0.3353090E+00
  0.9146170E+01  0.6111270E+01 -0.2310450E+00  0.3355160E+00 -0.1801709E+01  0.7678815E-01  0.3266107E+00
  0.8503110E+01  0.6978330E+01 -0.2310450E+00  0.3235795E+00 -0.1800841E+01  0.7378303E-01  0.3150551E+00
  0.7778170E+01  0.7778170E+01 -0.2310450E+00  0.3096886E+00 -0.1800601E+01  0.7054318E-01  0.3015472E+00
  0.6978330E+01  0.8503110E+01 -0.2310450E+00  0.2941637E+00 -0.1801317E+01  0.6721181E-01  0.2863824E+00
  0.6111270E+01  0.9146170E+01 -0.2310450E+00  0.2767586E+00 -0.1803823E+01  0.6390993E-01  0.2692784E+00
  0.5185360E+01  0.9701130E+01 -0.2310450E+00  0.2572059E+00 -0.1809688E+01  0.6086170E-01  0.2499015E+00
  0.4209520E+01  0.1016270E+02 -0.2310450E+00  0.2364006E+00 -0.1819802E+01  0.5825862E-01  0.2291096E+00
  0.3193130E+01  0.1052630E+02 -0.2310450E+00  0.2146362E+00 -0.1835748E+01  0.5620521E-01  0.2071465E+00
  0.2145990E+01  0.1078860E+02 -0.2310450E+00  0.1918841E+00 -0.1860654E+01  0.5484353E-01  0.1838796E+00
  0.1078190E+01  0.1094700E+02 -0.2310450E+00  0.1684229E+00 -0.1899786E+01  0.5441516E-01  0.1593902E+00
 -0.4808250E-06  0.1100000E+02 -0.2310450E+00  0.1451682E+00 -0.1958838E+01  0.5492821E-01  0.1343752E+00
 -0.1078190E+01  0.1094700E+02 -0.2310450E+00  0.1227078E+00 -0.2048172E+01  0.5637805E-01  0.1089895E+00
 -0.2145990E+01  0.1078860E+02 -0.2310450E+00  0.1019638E+00 -0.2185835E+01  0.5883209E-01  0.8327901E-01
 -0.3193130E+01  0.1052630E+02 -0.2310450E+00  0.8498483E-01 -0.2395053E+01  0.6238254E-01  0.5771343E-01
 -0.4209520E+01  0.1016270E+02 -0.2310450E+00  0.7440428E-01 -0.2686709E+01  0.6683827E-01  0.3269009E-01
 -0.5185370E+01  0.9701130E+01 -0.2310450E+00  0.7254773E-01 -0.3028082E+01  0.7208086E-01  0.8217248E-02
 -0.6111270E+01  0.9146160E+01 -0.2310450E+00  0.7957783E-01  0.2945235E+01  0.7804864E-01 -0.1552546E-01
 -0.6978330E+01  0.8503120E+01 -0.2310450E+00  0.9266207E-01  0.2721483E+01  0.8460458E-01 -0.3779319E-01
 -0.7778170E+01  0.7778170E+01 -0.2310450E+00  0.1086318E+00  0.2571837E+01  0.9147155E-01 -0.5859891E-01
 -0.8503120E+01  0.6978330E+01 -0.2310450E+00  0.1257014E+00  0.2471099E+01  0.9848892E-01 -0.7810748E-01
 -0.9146170E+01  0.6111270E+01 -0.2310450E+00  0.1426788E+00  0.2402934E+01  0.1054927E+00 -0.9606521E-01
 -0.9701130E+01  0.5185360E+01 -0.2310450E+00  0.1582274E+00  0.2358784E+01  0.1121730E+00 -0.1115935E+00
 -0.1016270E+02  0.4209520E+01 -0.2310450E+00  0.1722064E+00  0.2328416E+01  0.1183392E+00 -0.1251034E+00
 -0.1052630E+02  0.3193130E+01 -0.2310450E+00  0.1846409E+00  0.2306327E+01  0.1238904E+00 -0.1369066E+00
 -0.1078860E+02  0.2145990E+01 -0.2310450E+00  0.1951075E+00  0.2290734E+01  0.1286417E+00 -0.1466910E+00
 -0.1094700E+02  0.1078190E+01 -0.2310450E+00  0.2026603E+00  0.2281837E+01  0.1322606E+00 -0.1535524E+00
 -0.1100000E+02 -0.9616510E-06 -0.2310450E+00  0.2078179E+00  0.2276392E+01  0.1347672E+00 -0.1581964E+00
 -0.1094700E+02 -0.1078190E+01 -0.2310450E+00  0.2108621E+00  0.2272901E+01  0.1361802E+00 -0.1609900E+00
 -0.1078860E+02 -0.2146000E+01 -0.2310450E+00  0.2114434E+00  0.2271843E+01  0.1363848E+00 -0.1615781E+00
 -0.1052630E+02 -0.3193130E+01 -0.2310450E+00  0.2087911E+00  0.2275045E+01  0.1351842E+00 -0.1591193E+00
 -0.1016270E+02 -0.4209520E+01 -0.2310450E+00  0.2037184E+00  0.2280935E+01  0.1328120E+00 -0.1544739E+00
 -0.9701130E+01 -0.5185360E+01 -0.2310450E+00  0.1965892E+00  0.2289281E+01  0.1294038E+00 -0.1479931E+00
 -0.9146160E+01 -0.6111270E+01 -0.2310450E+00  0.1871482E+00  0.2301963E+01  0.1249661E+00 -0.1393123E+00
 -0.8503110E+01 -0.6978330E+01 -0.2310450E+00  0.1749640E+00  0.2322850E+01  0.1195249E+00 -0.1277740E+00
 -0.7778170E+01 -0.7778180E+01 -0.2310450E+00  0.1610159E+00  0.2352410E+01  0.1134237E+00 -0.1142856E+00
 -0.6978330E+01 -0.8503110E+01 -0.2310450E+00  0.1457618E+00  0.2393575E+01  0.1068490E+00 -0.9914528E-01
 -0.6111270E+01 -0.9146170E+01 -0.2310450E+00  0.1293019E+00  0.2453990E+01  0.9992061E-01 -0.8206616E-01
 -0.5185360E+01 -0.9701130E+01 -0.2310450E+00  0.1120517E+00  0.2547623E+01  0.9286016E-01 -0.6271029E-01
 -0.4209510E+01 -0.1016270E+02 -0.2310450E+00  0.9563841E-01  0.2687650E+01  0.8595263E-01 -0.4193865E-01
 -0.3193130E+01 -0.1052630E+02 -0.2310450E+00  0.8182868E-01  0.2894722E+01  0.7934780E-01 -0.1999649E-01
 -0.2145990E+01 -0.1078860E+02 -0.2310450E+00  0.7327717E-01 -0.3097202E+01  0.7320499E-01  0.3251736E-02
 -0.1078190E+01 -0.1094700E+02 -0.2310450E+00  0.7325013E-01 -0.2753351E+01  0.6779858E-01  0.2772968E-01
  0.1311740E-06 -0.1100000E+02 -0.2310450E+00  0.8232797E-01 -0.2446353E+01  0.6321967E-01  0.5273677E-01
  0.1078190E+01 -0.1094700E+02 -0.2310450E+00  0.9819768E-01 -0.2221762E+01  0.5950337E-01  0.7811615E-01
  0.2145990E+01 -0.1078860E+02 -0.2310450E+00  0.1183214E+00 -0.2071019E+01  0.5674944E-01  0.1038241E+00
  0.3193140E+01 -0.1052630E+02 -0.2310450E+00  0.1406445E+00 -0.1973457E+01  0.5511407E-01  0.1293959E+00
  0.4209520E+01 -0.1016270E+02 -0.2310450E+00  0.1637519E+00 -0.1909864E+01  0.5446518E-01  0.1544287E+00
  0.5185360E+01 -0.9701130E+01 -0.2310450E+00  0.1870917E+00 -0.1867574E+01  0.5471322E-01  0.1789127E+00
  0.6111270E+01 -0.9146160E+01 -0.2310450E+00  0.2102214E+00 -0.1839643E+01  0.5583886E-01  0.2026698E+00
  0.6978330E+01 -0.8503110E+01 -0.2310450E+00  0.2322632E+00 -0.1822253E+01  0.5779064E-01  0.2249587E+00
  0.7778180E+01 -0.7778170E+01 -0.2310450E+00  0.2530794E+00 -0.1811446E+01  0.6031732E-01  0.2457865E+00
  0.8503120E+01 -0.6978320E+01 -0.2310450E+00  0.2727569E+00 -0.1804902E+01  0.6327231E-01  0.2653167E+00
  0.9146170E+01 -0.6111270E+01 -0.2310450E+00  0.2910047E+00 -0.1801482E+01  0.6653675E-01  0.2832959E+00
  0.9701130E+01 -0.5185360E+01 -0.2310450E+00  0.3069137E+00 -0.1800548E+01  0.6989526E-01  0.2988489E+00
  0.1016270E+02 -0.4209520E+01 -0.2310450E+00  0.3208310E+00 -0.1800810E+01  0.7314645E-01  0.3123814E+00
  0.1052630E+02 -0.3193130E+01 -0.2310450E+00  0.3330342E+00 -0.1801601E+01  0.7618534E-01  0.3242030E+00
  0.1078860E+02 -0.2145990E+01 -0.2310450E+00  0.3431878E+00 -0.1802684E+01  0.7886971E-01  0.3340021E+00
  0.1094700E+02 -0.1078180E+01 -0.2310450E+00  0.3503598E+00 -0.1803967E+01  0.8095526E-01  0.3408786E+00
  0.1100000E+02  0.0000000E+00 -0.4105000E+00  0.3531810E+00 -0.1804911E+01  0.8193155E-01  0.3435462E+00
  0.1094700E+02  0.1078190E+01 -0.4105000E+00  0.3560084E+00 -0.1805382E+01  0.8275075E-01  0.3462575E+00
  0.1078860E+02  0.2145990E+01 -0.4105000E+00  0.3564886E+00 -0.1805369E+01  0.8285762E-01  0.3467258E+00
  0.1052630E+02  0.3193130E+01 -0.4105000E+00  0.3540605E+00 -0.1805001E+01  0.8216663E-01  0.3443944E+00
  0.1016270E+02  0.4209520E+01 -0.4105000E+00  0.3493094E+00 -0.1804206E+01  0.8079384E-01  0.3398373E+00
  0.9701130E+01  0.5185360E+01 -0.4105000E+00  0.3425031E+00 -0.1803028E+01  0.7882714E-01  0.3333086E+00
  0.9146170E+01  0.6111270E+01 -0.4105000E+00  0.3334078E+00 -0.1801728E+01  0.7631195E-01  0.3245571E+00
  0.8503110E+01  0.6978330E+01 -0.4105000E+00  0.3216482E+00 -0.1800818E+01  0.7333522E-01  0.3131764E+00
  0.7778170E+01  0.7778170E+01 -0.4105000E+00  0.3078911E+00 -0.1800533E+01  0.7011323E-01  0.2998017E+00
  0.6978330E+01  0.8503110E+01 -0.4105000E+00  0.2923928E+00 -0.1801272E+01  0.6679442E-01  0.2846613E+00
  0.6111270E+01  0.9146170E+01 -0.4105000E+00  0.2750148E+00 -0.1803849E+01  0.6351431E-01  0.2675800E+00
  0.5185360E+01  0.9701130E+01 -0.4105000E+00  0.2556567E+00 -0.1809629E+01  0.6048037E-01  0.2483999E+00
  0.4209520E+01  0.1016270E+02 -0.4105000E+00  0.2350011E+00 -0.1819663E+01  0.5788214E-01  0.2277613E+00
  0.3193130E+01  0.1052630E+02 -0.4105000E+00  0.2133188E+00 -0.1835666E+01  0.5584328E-01  0.2058797E+00
  0.2145990E+01  0.1078860E+02 -0.4105000E+00  0.1906672E+00 -0.1860701E+01  0.5450432E-01  0.1827108E+00
  0.1078190E+01  0.1094700E+02 -0.4105000E+00  0.1673818E+00 -0.1899679E+01  0.5406188E-01  0.1584108E+00
 -0.4808250E-06  0.1100000E+02 -0.4105000E+00  0.1442590E+00 -0.1958642E+01  0.5455809E-01  0.1335443E+00
 -0.1078190E+01  0.1094700E+02 -0.4105000E+00  0.1219137E+00 -0.2048141E+01  0.5600989E-01  0.1082859E+00
 -0.2145990E+01  0.1078860E+02 -0.4105000E+00  0.1013092E+00 -0.2185990E+01  0.5846726E-01  0.8273534E-01
 -0.3193130E+01  0.1052630E+02 -0.4105000E+00  0.8441941E-01 -0.2395224E+01  0.6197731E-01  0.5731885E-01
 -0.4209520E+01  0.1016270E+02 -0.4105000E+00  0.7388774E-01 -0.2687440E+01  0.6639798E-01  0.3241460E-01
 -0.5185370E+01  0.9701130E+01 -0.4105000E+00  0.7207739E-01 -0.3029066E+01  0.7162153E-01  0.8093551E-02
 -0.6111270E+01  0.9146160E+01 -0.4105000E+00  0.7908775E-01  0.2944905E+01  0.7756288E-01 -0.1545549E-01
 -0.6978330E+01  0.8503120E+01 -0.4105000E+00  0.9211132E-01  0.2720635E+01  0.8406983E-01 -0.3763985E-01
 -0.7778170E+01  0.7778170E+01 -0.4105000E+00  0.1080289E+00  0.2570719E+01  0.9089866E-01 -0.5837535E-01