 VARIABLES="X" "Y" "Z" "abs(eta) (m)" "angle(phi) (rad)" "PRE1" "PRE2"
ZONE N=   3200 ,E =    3136 ,F=FEPOINT,ET=QUADRILATERAL
  0.1100000E+02  0.0000000E+00  0.0000000E+00  0.1602073E+00  0.2217053E+01  0.9647722E-01 -0.1279005E+00
  0.1094700E+02  0.1078190E+01  0.0000000E+00  0.1655175E+00  0.2208605E+01  0.9855508E-01 -0.1329772E+00
  0.1078860E+02  0.2145990E+01  0.0000000E+00  0.1686938E+00  0.2204280E+01  0.9985930E-01 -0.1359622E+00
  0.1052630E+02  0.3193130E+01  0.0000000E+00  0.1703339E+00  0.2201647E+01  0.1004683E+00 -0.1375491E+00
  0.1016270E+02  0.4209520E+01  0.0000000E+00  0.1697501E+00  0.2202461E+01  0.1002355E+00 -0.1369961E+00
  0.9701130E+01  0.5185360E+01  0.0000000E+00  0.1671273E+00  0.2206205E+01  0.9919113E-01 -0.1345090E+00
  0.9146170E+01  0.6111270E+01  0.0000000E+00  0.1623284E+00  0.2213925E+01  0.9734863E-01 -0.1298990E+00
  0.8503110E+01  0.6978330E+01  0.0000000E+00  0.1560740E+00  0.2224271E+01  0.9488498E-01 -0.1239191E+00
  0.7778170E+01  0.7778170E+01  0.0000000E+00  0.1478587E+00  0.2240434E+01  0.9177616E-01 -0.1159281E+00
  0.6978330E+01  0.8503110E+01  0.0000000E+00  0.1379761E+00  0.2263773E+01  0.8814336E-01 -0.1061516E+00
  0.6111270E+01  0.9146170E+01  0.0000000E+00  0.1264811E+00  0.2298129E+01  0.8409470E-01 -0.9447509E-01
  0.5185360E+01  0.9701130E+01  0.0000000E+00  0.1141535E+00  0.2345047E+01  0.7981395E-01 -0.8161350E-01
  0.4209520E+01  0.1016270E+02  0.0000000E+00  0.1009647E+00  0.2414150E+01  0.7540827E-01 -0.6713764E-01
  0.3193130E+01  0.1052630E+02  0.0000000E+00  0.8761097E-01  0.2516222E+01  0.7103024E-01 -0.5128729E-01
  0.2145990E+01  0.1078860E+02  0.0000000E+00  0.7499602E-01  0.2670204E+01  0.6681686E-01 -0.3405747E-01
  0.1078190E+01  0.1094700E+02  0.0000000E+00  0.6487920E-01  0.2891768E+01  0.6286508E-01 -0.1604035E-01
 -0.4808250E-06  0.1100000E+02  0.0000000E+00  0.5941820E-01 -0.3092850E+01  0.5934763E-01  0.2895031E-02
 -0.1078190E+01  0.1094700E+02  0.0000000E+00  0.6069639E-01 -0.2761543E+01  0.5636547E-01  0.2251633E-01
 -0.2145990E+01  0.1078860E+02  0.0000000E+00  0.6884788E-01 -0.2472532E+01  0.5400461E-01  0.4270284E-01
 -0.3193130E+01  0.1052630E+02  0.0000000E+00  0.8189964E-01 -0.2262271E+01  0.5222529E-01  0.6308781E-01
 -0.4209520E+01  0.1016270E+02  0.0000000E+00  0.9790693E-01 -0.2120650E+01  0.5116250E-01  0.8347555E-01
 -0.5185370E+01  0.9701130E+01  0.0000000E+00  0.1154688E+00 -0.2026452E+01  0.5081217E-01  0.1036879E+00
 -0.6111270E+01  0.9146160E+01  0.0000000E+00  0.1336921E+00 -0.1963461E+01  0.5115746E-01  0.1235172E+00
 -0.6978330E+01  0.8503120E+01  0.0000000E+00  0.1520816E+00 -0.1920128E+01  0.5205299E-01  0.1428961E+00
 -0.7778170E+01  0.7778170E+01  0.0000000E+00  0.1700023E+00 -0.1891057E+01  0.5351913E-01  0.1613583E+00
 -0.8503120E+01  0.6978330E+01  0.0000000E+00  0.1872294E+00 -0.1871504E+01  0.5545660E-01  0.1788279E+00
 -0.9146170E+01  0.6111270E+01  0.0000000E+00  0.2034393E+00 -0.1858672E+01  0.5775961E-01  0.1950676E+00
 -0.9701130E+01  0.5185360E+01  0.0000000E+00  0.2187990E+00 -0.1849865E+01  0.6027057E-01  0.2103342E+00
 -0.1016270E+02  0.4209520E+01  0.0000000E+00  0.2326372E+00 -0.1844540E+01  0.6289071E-01  0.2239751E+00
 -0.1052630E+02  0.3193130E+01  0.0000000E+00  0.2449603E+00 -0.1841454E+01  0.6549375E-01  0.2360426E+00
 -0.1078860E+02  0.2145990E+01  0.0000000E+00  0.2555027E+00 -0.1839986E+01  0.6795102E-01  0.2463012E+00
 -0.1094700E+02  0.1078190E+01  0.0000000E+00  0.2647500E+00 -0.1839115E+01  0.7018795E-01  0.2552767E+00
 -0.1100000E+02 -0.9616510E-06  0.0000000E+00  0.2719483E+00 -0.1838952E+01  0.7205366E-01  0.2622292E+00
 -0.1094700E+02 -0.1078190E+01  0.0000000E+00  0.2772218E+00 -0.1839034E+01  0.7347276E-01  0.2673082E+00
 -0.1078860E+02 -0.2146000E+01  0.0000000E+00  0.2803397E+00 -0.1839296E+01  0.7437011E-01  0.2702951E+00
 -0.1052630E+02 -0.3193130E+01  0.0000000E+00  0.2819829E+00 -0.1839252E+01  0.7479385E-01  0.2718827E+00
 -0.1016270E+02 -0.4209520E+01  0.0000000E+00  0.2814072E+00 -0.1839226E+01  0.7463427E-01  0.2713296E+00
 -0.9701130E+01 -0.5185360E+01  0.0000000E+00  0.2788158E+00 -0.1839093E+01  0.7391109E-01  0.2688408E+00
 -0.9146160E+01 -0.6111270E+01  0.0000000E+00  0.2740330E+00 -0.1839099E+01  0.7264489E-01  0.2642286E+00
 -0.8503110E+01 -0.6978330E+01  0.0000000E+00  0.2678197E+00 -0.1839000E+01  0.7097226E-01  0.2582447E+00
 -0.7778170E+01 -0.7778180E+01  0.0000000E+00  0.2595598E+00 -0.1839444E+01  0.6889428E-01  0.2502496E+00
 -0.6978330E+01 -0.8503110E+01  0.0000000E+00  0.2494983E+00 -0.1840654E+01  0.6651472E-01  0.2404687E+00
 -0.6111270E+01 -0.9146170E+01  0.0000000E+00  0.2375532E+00 -0.1843307E+01  0.6393762E-01  0.2287870E+00
 -0.5185360E+01 -0.9701130E+01  0.0000000E+00  0.2244540E+00 -0.1847435E+01  0.6130369E-01  0.2159200E+00
 -0.4209510E+01 -0.1016270E+02  0.0000000E+00  0.2098255E+00 -0.1854485E+01  0.5872982E-01  0.2014387E+00
 -0.3193130E+01 -0.1052630E+02  0.0000000E+00  0.1939483E+00 -0.1865564E+01  0.5634538E-01  0.1855833E+00
 -0.2145990E+01 -0.1078860E+02  0.0000000E+00  0.1768816E+00 -0.1882672E+01  0.5427509E-01  0.1683488E+00
 -0.1078190E+01 -0.1094700E+02  0.0000000E+00  0.1592561E+00 -0.1907239E+01  0.5257546E-01  0.1503274E+00
  0.1311740E-06 -0.1100000E+02  0.0000000E+00  0.1410890E+00 -0.1943776E+01  0.5141170E-01  0.1313885E+00
  0.1078190E+01 -0.1094700E+02  0.0000000E+00  0.1227927E+00 -0.1997856E+01  0.5086031E-01  0.1117644E+00
  0.2145990E+01 -0.1078860E+02  0.0000000E+00  0.1048138E+00 -0.2078828E+01  0.5098757E-01  0.9157616E-01
  0.3193140E+01 -0.1052630E+02  0.0000000E+00  0.8799591E-01 -0.2199113E+01  0.5172260E-01  0.7119026E-01
  0.4209520E+01 -0.1016270E+02  0.0000000E+00  0.7354446E-01 -0.2379022E+01  0.5317724E-01  0.5080323E-01
  0.5185360E+01 -0.9701130E+01  0.0000000E+00  0.6321964E-01 -0.2636481E+01  0.5532479E-01  0.3059232E-01
  0.6111270E+01 -0.9146160E+01  0.0000000E+00  0.5911309E-01 -0.2958457E+01  0.5812457E-01  0.1076529E-01
  0.6978330E+01 -0.8503110E+01  0.0000000E+00  0.6201475E-01  0.3002297E+01  0.6141409E-01 -0.8610449E-02
  0.7778180E+01 -0.7778170E+01  0.0000000E+00  0.7057513E-01  0.2747969E+01  0.6517792E-01 -0.2706818E-01
  0.8503120E+01 -0.6978320E+01  0.0000000E+00  0.8237553E-01  0.2570423E+01  0.6930002E-01 -0.4453353E-01
  0.9146170E+01 -0.6111270E+01  0.0000000E+00  0.9548327E-01  0.2451741E+01  0.7365008E-01 -0.6076775E-01
  0.9701130E+01 -0.5185360E+01  0.0000000E+00  0.1089739E+00  0.2369441E+01  0.7807010E-01 -0.7602879E-01
  0.1016270E+02 -0.4209520E+01  0.0000000E+00  0.1217886E+00  0.2314113E+01  0.8241843E-01 -0.8966419E-01
  0.1052630E+02 -0.3193130E+01  0.0000000E+00  0.1335704E+00  0.2275816E+01  0.8656015E-01 -0.1017270E+00
  0.1078860E+02 -0.2145990E+01  0.0000000E+00  0.1438819E+00  0.2249668E+01  0.9034570E-01 -0.1119806E+00
  0.1094700E+02 -0.1078180E+01  0.0000000E+00  0.1530098E+00  0.2229993E+01  0.9371582E-01 -0.1209519E+00
  0.1100000E+02  0.0000000E+00 -0.2568960E-01  0.1601080E+00  0.2216991E+01  0.9640943E-01 -0.1278272E+00
  0.1094700E+02  0.1078190E+01 -0.2568960E-01  0.1654182E+00  0.2208535E+01  0.9848678E-01 -0.1329043E+00
  0.1078860E+02  0.2145990E+01 -0.2568960E-01  0.1686015E+00  0.2204185E+01  0.9979181E-01 -0.1358972E+00
  0.1052630E+02  0.3193130E+01 -0.2568960E-01  0.1702313E+00  0.2201580E+01  0.1003986E+00 -0.1374730E+00
  0.1016270E+02  0.4209520E+01 -0.2568960E-01  0.1696447E+00  0.2202401E+01  0.1001652E+00 -0.1369170E+00
  0.9701130E+01  0.5185360E+01 -0.2568960E-01  0.1670268E+00  0.2206135E+01  0.9912209E-01 -0.1344350E+00
  0.9146170E+01  0.6111270E+01 -0.2568960E-01  0.1622394E+00  0.2213827E+01  0.9728254E-01 -0.1298373E+00
  0.8503110E+01  0.6978330E+01 -0.2568960E-01  0.1559803E+00  0.2224198E+01  0.9481896E-01 -0.1238516E+00
  0.7778170E+01  0.7778170E+01 -0.2568960E-01  0.1477670E+00  0.2240368E+01  0.9171169E-01 -0.1158623E+00
  0.6978330E+01  0.8503110E+01 -0.2568960E-01  0.1378929E+00  0.2263694E+01  0.8808176E-01 -0.1060945E+00
  0.6111270E+01  0.9146170E+01 -0.2568960E-01  0.1264112E+00  0.2298006E+01  0.8403662E-01 -0.9443322E-01
  0.5185360E+01  0.9701130E+01 -0.2568960E-01  0.1140850E+00  0.2344951E+01  0.7975823E-01 -0.8157218E-01
  0.4209520E+01  0.1016270E+02 -0.2568960E-01  0.1009014E+00  0.2414066E+01  0.7535531E-01 -0.6710190E-01
  0.3193130E+01  0.1052630E+02 -0.2568960E-01  0.8755620E-01  0.2516108E+01  0.7098002E-01 -0.5126328E-01
  0.2145990E+01  0.1078860E+02 -0.2568960E-01  0.7494977E-01  0.2670011E+01  0.6676906E-01 -0.3404938E-01
  0.1078190E+01  0.1094700E+02 -0.2568960E-01  0.6483585E-01  0.2891621E+01  0.6282072E-01 -0.1603884E-01
 -0.4808250E-06  0.1100000E+02 -0.2568960E-01  0.5937620E-01 -0.3092954E+01  0.5930598E-01  0.2886827E-02
 -0.1078190E+01  0.1094700E+02 -0.2568960E-01  0.6065138E-01 -0.2761613E+01  0.5632526E-01  0.2249567E-01
 -0.2145990E+01  0.1078860E+02 -0.2568960E-01  0.6879506E-01 -0.2472566E+01  0.5396463E-01  0.4266824E-01
 -0.3193130E+01  0.1052630E+02 -0.2568960E-01  0.8184016E-01 -0.2262283E+01  0.5218810E-01  0.6304137E-01
 -0.4209520E+01  0.1016270E+02 -0.2568960E-01  0.9783843E-01 -0.2120647E+01  0.5112645E-01  0.8341729E-01
 -0.5185370E+01  0.9701130E+01 -0.2568960E-01  0.1153904E+00 -0.2026433E+01  0.5077578E-01  0.1036184E+00
 -0.6111270E+01  0.9146160E+01 -0.2568960E-01  0.1336041E+00 -0.1963424E+01  0.5111926E-01  0.1234377E+00
 -0.6978330E+01  0.8503120E+01 -0.2568960E-01  0.1519800E+00 -0.1920110E+01  0.5201565E-01  0.1428016E+00
 -0.7778170E+01  0.7778170E+01 -0.2568960E-01  0.1698892E+00 -0.1891044E+01  0.5348138E-01  0.1612516E+00
 -0.8503120E+01  0.6978330E+01 -0.2568960E-01  0.1871080E+00 -0.1871485E+01  0.5541727E-01  0.1787129E+00
 -0.9146170E+01  0.6111270E+01 -0.2568960E-01  0.2033134E+00 -0.1858643E+01  0.5771818E-01  0.1949486E+00
 -0.9701130E+01  0.5185360E+01 -0.2568960E-01  0.2186572E+00 -0.1849847E+01  0.6022769E-01  0.2101990E+00
 -0.1016270E+02  0.4209520E+01 -0.2568960E-01  0.2324848E+00 -0.1844526E+01  0.6284618E-01  0.2238293E+00
 -0.1052630E+02  0.3193130E+01 -0.2568960E-01  0.2448038E+00 -0.1841435E+01  0.6544762E-01  0.2358931E+00
 -0.1078860E+02  0.2145990E+01 -0.2568960E-01  0.2553478E+00 -0.1839962E+01  0.6790383E-01  0.2461536E+00
 -0.1094700E+02  0.1078190E+01 -0.2568960E-01  0.2645804E+00 -0.1839097E+01  0.7013849E-01  0.2551145E+00
 -0.1100000E+02 -0.9616510E-06 -0.2568960E-01  0.2717707E+00 -0.1838936E+01  0.7200243E-01  0.2620591E+00
 -0.1094700E+02 -0.1078190E+01 -0.2568960E-01  0.2770449E+00 -0.1839016E+01  0.7342117E-01  0.2671389E+00
 -0.1078860E+02 -0.2146000E+01 -0.2568960E-01  0.2801706E+00 -0.1839274E+01  0.7431924E-01  0.2701336E+00
 -0.1052630E+02 -0.3193130E+01 -0.2568960E-01  0.2818026E+00 -0.1839235E+01  0.7474142E-01  0.2717102E+00
 -0.1016270E+02 -0.4209520E+01 -0.2568960E-01  0.2812236E+00 -0.1839210E+01  0.7458120E-01  0.2711537E+00
 -0.9701130E+01 -0.5185360E+01 -0.2568960E-01  0.2786381E+00 -0.1839076E+01  0.7385931E-01  0.2686707E+00
 -0.9146160E+01 -0.6111270E+01 -0.2568960E-01  0.2738668E+00 -0.1839077E+01  0.7259510E-01  0.2640700E+00
 -0.8503110E+01 -0.6978330E+01 -0.2568960E-01  0.2676488E+00 -0.1838983E+01  0.7092247E-01  0.2580811E+00
 -0.7778170E+01 -0.7778180E+01 -0.2568960E-01  0.2593907E+00 -0.1839428E+01  0.6884544E-01  0.2500877E+00
 -0.6978330E+01 -0.8503110E+01 -0.2568960E-01  0.2493377E+00 -0.1840636E+01  0.6646763E-01  0.2403151E+00
 -0.6111270E+01 -0.9146170E+01 -0.2568960E-01  0.2374083E+00 -0.1843281E+01  0.6389257E-01  0.2286492E+00
 -0.5185360E+01 -0.9701130E+01 -0.2568960E-01  0.2243098E+00 -0.1847417E+01  0.6126037E-01  0.2157824E+00
 -0.4209510E+01 -0.1016270E+02 -0.2568960E-01  0.2096876E+00 -0.1854470E+01  0.5868825E-01  0.2013071E+00
 -0.3193130E+01 -0.1052630E+02 -0.2568960E-01  0.1938215E+00 -0.1865545E+01  0.5630505E-01  0.1854630E+00
 -0.2145990E+01 -0.1078860E+02 -0.2568960E-01  0.1767701E+00 -0.1882640E+01  0.5423545E-01  0.1682444E+00
 -0.1078190E+01 -0.1094700E+02 -0.2568960E-01  0.1591514E+00 -0.1907219E+01  0.5253783E-01  0.1502296E+00
  0.1311740E-06 -0.1100000E+02 -0.2568960E-01  0.1409938E+00 -0.1943764E+01  0.5137537E-01  0.1313005E+00
  0.1078190E+01 -0.1094700E+02 -0.2568960E-01  0.1227087E+00 -0.1997841E+01  0.5082383E-01  0.1116887E+00
  0.2145990E+01 -0.1078860E+02 -0.2568960E-01  0.1047415E+00 -0.2078795E+01  0.5094939E-01  0.9151466E-01
  0.3193140E+01 -0.1052630E+02 -0.2568960E-01  0.8793379E-01 -0.2199107E+01  0.5168561E-01  0.7114036E-01
  0.4209520E+01 -0.1016270E+02 -0.2568960E-01  0.7349126E-01 -0.2379043E+01  0.5313987E-01  0.5076534E-01
  0.5185360E+01 -0.9701130E+01 -0.2568960E-01  0.6317224E-01 -0.2636549E+01  0.5528539E-01  0.3056563E-01
  0.6111270E+01 -0.9146160E+01 -0.2568960E-01  0.5906807E-01 -0.2958605E+01  0.5808190E-01  0.1074849E-01
  0.6978330E+01 -0.8503110E+01 -0.2568960E-01  0.6197178E-01  0.3002169E+01  0.6137042E-01 -0.8612384E-02
  0.7778180E+01 -0.7778170E+01 -0.2568960E-01  0.7052886E-01  0.2747856E+01  0.6513214E-01 -0.2705781E-01
  0.8503120E+01 -0.6978320E+01 -0.2568960E-01  0.8232451E-01  0.2570297E+01  0.6925146E-01 -0.4451472E-01
  0.9146170E+01 -0.6111270E+01 -0.2568960E-01  0.9542879E-01  0.2451580E+01  0.7359829E-01 -0.6074492E-01
  0.9701130E+01 -0.5185360E+01 -0.2568960E-01  0.1089075E+00  0.2369344E+01  0.7801516E-01 -0.7598996E-01
  0.1016270E+02 -0.4209520E+01 -0.2568960E-01  0.1217130E+00  0.2314038E+01  0.8236051E-01 -0.8961476E-01
  0.1052630E+02 -0.3193130E+01 -0.2568960E-01  0.1334904E+00  0.2275734E+01  0.8649994E-01 -0.1016733E+00
  0.1078860E+02 -0.2145990E+01 -0.2568960E-01  0.1438028E+00  0.2249558E+01  0.9028363E-01 -0.1119290E+00
  0.1094700E+02 -0.1078180E+01 -0.2568960E-01  0.1529176E+00  0.2229919E+01  0.9365039E-01 -0.1208859E+00
  0.1100000E+02  0.0000000E+00 -0.1027320E+00  0.1597923E+00  0.2216933E+01  0.9621201E-01 -0.1275807E+00
  0.1094700E+02  0.1078190E+01 -0.1027320E+00  0.1651066E+00  0.2208438E+01  0.9828834E-01 -0.1326635E+00
  0.1078860E+02  0.2145990E+01 -0.1027320E+00  0.1683155E+00  0.2204002E+01  0.9959766E-01 -0.1356850E+00
  0.1052630E+02  0.3193130E+01 -0.1027320E+00  0.1699109E+00  0.2201488E+01  0.1001970E+00 -0.1372234E+00
  0.1016270E+02  0.4209520E+01 -0.1027320E+00  0.1693104E+00  0.2202351E+01  0.9996092E-01 -0.1366522E+00
  0.9701130E+01  0.5185360E+01 -0.1027320E+00  0.1667119E+00  0.2206041E+01  0.9892260E-01 -0.1341908E+00
  0.9146170E+01  0.6111270E+01 -0.1027320E+00  0.1619641E+00  0.2213629E+01  0.9709190E-01 -0.1296362E+00
  0.8503110E+01  0.6978330E+01 -0.1027320E+00  0.1556867E+00  0.2224089E+01  0.9462706E-01 -0.1236287E+00
  0.7778170E+01  0.7778170E+01 -0.1027320E+00  0.1474756E+00  0.2240300E+01  0.9152289E-01 -0.1156400E+00
  0.6978330E+01  0.8503110E+01 -0.1027320E+00  0.1376317E+00  0.2263562E+01  0.8790091E-01 -0.1059052E+00
  0.6111270E+01  0.9146170E+01 -0.1027320E+00  0.1261939E+00  0.2297719E+01  0.8386505E-01 -0.9429501E-01
  0.5185360E+01  0.9701130E+01 -0.1027320E+00  0.1138687E+00  0.2344771E+01  0.7959227E-01 -0.8143184E-01
  0.4209520E+01  0.1016270E+02 -0.1027320E+00  0.1007007E+00  0.2413938E+01  0.7519689E-01 -0.6697803E-01
  0.3193130E+01  0.1052630E+02 -0.1027320E+00  0.8738446E-01  0.2515869E+01  0.7082857E-01 -0.5117966E-01
  0.2145990E+01  0.1078860E+02 -0.1027320E+00  0.7480517E-01  0.2669501E+01  0.6662291E-01 -0.3401767E-01
  0.1078190E+01  0.1094700E+02 -0.1027320E+00  0.6470004E-01  0.2891306E+01  0.6268409E-01 -0.1602501E-01
 -0.4808250E-06  0.1100000E+02 -0.1027320E+00  0.5924709E-01 -0.3093120E+01  0.5917750E-01  0.2870729E-02
 -0.1078190E+01  0.1094700E+02 -0.1027320E+00  0.6051358E-01 -0.2761730E+01  0.5619990E-01  0.2243802E-01
 -0.2145990E+01  0.1078860E+02 -0.1027320E+00  0.6863305E-01 -0.2472590E+01  0.5383854E-01  0.4256649E-01
 -0.3193130E+01  0.1052630E+02 -0.1027320E+00  0.8165929E-01 -0.2262249E+01  0.5207057E-01  0.6290385E-01
 -0.4209520E+01  0.1016270E+02 -0.1027320E+00  0.9762911E-01 -0.2120613E+01  0.5101423E-01  0.8324058E-01
 -0.5185370E+01  0.9701130E+01 -0.1027320E+00  0.1151492E+00 -0.2026358E+01  0.5066184E-01  0.1034056E+00
 -0.6111270E+01  0.9146160E+01 -0.1027320E+00  0.1333351E+00 -0.1963295E+01  0.5100048E-01  0.1231957E+00
 -0.6978330E+01  0.8503120E+01 -0.1027320E+00  0.1516679E+00 -0.1920052E+01  0.5190053E-01  0.1425113E+00
 -0.7778170E+01  0.7778170E+01 -0.1027320E+00  0.1695378E+00 -0.1891015E+01  0.5336614E-01  0.1609196E+00
 -0.8503120E+01  0.6978330E+01 -0.1027320E+00  0.1867315E+00 -0.1871441E+01  0.5529787E-01  0.1783558E+00
 -0.9146170E+01  0.6111270E+01 -0.1027320E+00  0.2029259E+00 -0.1858568E+01  0.5759363E-01  0.1945814E+00
 -0.9701130E+01  0.5185360E+01 -0.1027320E+00  0.2182190E+00 -0.1849818E+01  0.6010094E-01  0.2097795E+00
 -0.1016270E+02  0.4209520E+01 -0.1027320E+00  0.2320090E+00 -0.1844516E+01  0.6271540E-01  0.2233718E+00
 -0.1052630E+02  0.3193130E+01 -0.1027320E+00  0.2443171E+00 -0.1841418E+01  0.6531338E-01  0.2354252E+00
 -0.1078860E+02  0.2145990E+01 -0.1027320E+00  0.2548706E+00 -0.1839925E+01  0.6776789E-01  0.2456960E+00
 -0.1094700E+02  0.1078190E+01 -0.1027320E+00  0.2640544E+00 -0.1839087E+01  0.6999659E-01  0.2546080E+00
 -0.1100000E+02 -0.9616510E-06 -0.1027320E+00  0.2712169E+00 -0.1838938E+01  0.7185617E-01  0.2615250E+00
 -0.1094700E+02 -0.1078190E+01 -0.1027320E+00  0.2764961E+00 -0.1839012E+01  0.7327459E-01  0.2666101E+00
 -0.1078860E+02 -0.2146000E+01 -0.1027320E+00  0.2796498E+00 -0.1839255E+01  0.7417590E-01  0.2696329E+00
 -0.1052630E+02 -0.3193130E+01 -0.1027320E+00  0.2812446E+00 -0.1839232E+01  0.7459266E-01  0.2711723E+00
 -0.1016270E+02 -0.4209520E+01 -0.1027320E+00  0.2806505E+00 -0.1839215E+01  0.7443041E-01  0.2706009E+00
 -0.9701130E+01 -0.5185360E+01 -0.1027320E+00  0.2780854E+00 -0.1839072E+01  0.7371181E-01  0.2681382E+00
 -0.9146160E+01 -0.6111270E+01 -0.1027320E+00  0.2733579E+00 -0.1839053E+01  0.7245369E-01  0.2635812E+00
 -0.8503110E+01 -0.6978330E+01 -0.1027320E+00  0.2671181E+00 -0.1838975E+01  0.7077977E-01  0.2575700E+00
 -0.7778170E+01 -0.7778180E+01 -0.1027320E+00  0.2588609E+00 -0.1839426E+01  0.6870449E-01  0.2495770E+00
 -0.6978330E+01 -0.8503110E+01 -0.1027320E+00  0.2488414E+00 -0.1840620E+01  0.6633143E-01  0.2398378E+00
 -0.6111270E+01 -0.9146170E+01 -0.1027320E+00  0.2369618E+00 -0.1843232E+01  0.6376118E-01  0.2282223E+00
 -0.5185360E+01 -0.9701130E+01 -0.1027320E+00  0.2238623E+00 -0.1847390E+01  0.6113244E-01  0.2153536E+00
 -0.4209510E+01 -0.1016270E+02 -0.1027320E+00  0.2092571E+00 -0.1854454E+01  0.5856459E-01  0.2008948E+00
 -0.3193130E+01 -0.1052630E+02 -0.1027320E+00  0.1934304E+00 -0.1865505E+01  0.5618396E-01  0.1850910E+00
 -0.2145990E+01 -0.1078860E+02 -0.1027320E+00  0.1764281E+00 -0.1882543E+01  0.5411425E-01  0.1679242E+00
 -0.1078190E+01 -0.1094700E+02 -0.1027320E+00  0.1588279E+00 -0.1907161E+01  0.5242238E-01  0.1499273E+00
  0.1311740E-06 -0.1100000E+02 -0.1027320E+00  0.1406995E+00 -0.1943729E+01  0.5126360E-01  0.1310282E+00
  0.1078190E+01 -0.1094700E+02 -0.1027320E+00  0.1224516E+00 -0.1997774E+01  0.5070983E-01  0.1114581E+00
  0.2145990E+01 -0.1078860E+02 -0.1027320E+00  0.1045201E+00 -0.2078661E+01  0.5082946E-01  0.9132803E-01
  0.3193140E+01 -0.1052630E+02 -0.1027320E+00  0.8774362E-01 -0.2199044E+01  0.5156935E-01  0.7098975E-01
  0.4209520E+01 -0.1016270E+02 -0.1027320E+00  0.7332987E-01 -0.2379046E+01  0.5302332E-01  0.5065369E-01
  0.5185360E+01 -0.9701130E+01 -0.1027320E+00  0.6302793E-01 -0.2636651E+01  0.5516222E-01  0.3049015E-01
  0.6111270E+01 -0.9146160E+01 -0.1027320E+00  0.5892912E-01 -0.2958966E+01  0.5794914E-01  0.1070228E-01
  0.6978330E+01 -0.8503110E+01 -0.1027320E+00  0.6183826E-01  0.3001898E+01  0.6123586E-01 -0.8610406E-02
  0.7778180E+01 -0.7778170E+01 -0.1027320E+00  0.7038333E-01  0.2747670E+01  0.6499272E-01 -0.2701405E-01
  0.8503120E+01 -0.6978320E+01 -0.1027320E+00  0.8216299E-01  0.2570027E+01  0.6910359E-01 -0.4444604E-01
  0.9146170E+01 -0.6111270E+01 -0.1027320E+00  0.9525803E-01  0.2451172E+01  0.7344187E-01 -0.6066616E-01
  0.9701130E+01 -0.5185360E+01 -0.1027320E+00  0.1086987E+00  0.2369159E+01  0.7785153E-01 -0.7585867E-01
  0.1016270E+02 -0.4209520E+01 -0.1027320E+00  0.1214724E+00  0.2313941E+01  0.8218906E-01 -0.8944546E-01
  0.1052630E+02 -0.3193130E+01 -0.1027320E+00  0.1332387E+00  0.2275591E+01  0.8632237E-01 -0.1014939E+00
  0.1078860E+02 -0.2145990E+01 -0.1027320E+00  0.1435576E+00  0.2249320E+01  0.9010312E-01 -0.1117596E+00
  0.1094700E+02 -0.1078180E+01 -0.1027320E+00  0.1526287E+00  0.2229808E+01  0.9346002E-01 -0.1206680E+00
  0.1100000E+02  0.0000000E+00 -0.2310450E+00  0.1592779E+00  0.2216798E+01  0.9588509E-01 -0.1271829E+00
  0.1094700E+02  0.1078190E+01 -0.2310450E+00  0.1645928E+00  0.2208260E+01  0.9795886E-01 -0.1322681E+00
  0.1078860E+02  0.2145990E+01 -0.2310450E+00  0.1678483E+00  0.2203660E+01  0.9927486E-01 -0.1353423E+00
  0.1052630E+02  0.3193130E+01 -0.2310450E+00  0.1693813E+00  0.2201317E+01  0.9986132E-01 -0.1368128E+00
  0.1016270E+02  0.4209520E+01 -0.2310450E+00  0.1687654E+00  0.2202226E+01  0.9962203E-01 -0.1362248E+00
  0.9701130E+01  0.5185360E+01 -0.2310450E+00  0.1661918E+00  0.2205866E+01  0.9859054E-01 -0.1337895E+00
  0.9146170E+01  0.6111270E+01 -0.2310450E+00  0.1615145E+00  0.2213267E+01  0.9677548E-01 -0.1293114E+00
  0.8503110E+01  0.6978330E+01 -0.2310450E+00  0.1552026E+00  0.2223894E+01  0.9430874E-01 -0.1232627E+00
  0.7778170E+01  0.7778170E+01 -0.2310450E+00  0.1470008E+00  0.2240148E+01  0.9121068E-01 -0.1152816E+00
  0.6978330E+01  0.8503110E+01 -0.2310450E+00  0.1372006E+00  0.2263334E+01  0.8760155E-01 -0.1055934E+00
  0.6111270E+01  0.9146170E+01 -0.2310450E+00  0.1258396E+00  0.2297211E+01  0.8358188E-01 -0.9407270E-01
  0.5185360E+01  0.9701130E+01 -0.2310450E+00  0.1135134E+00  0.2344465E+01  0.7931915E-01 -0.8120202E-01
  0.4209520E+01  0.1016270E+02 -0.2310450E+00  0.1003741E+00  0.2413691E+01  0.7493650E-01 -0.6677939E-01
  0.3193130E+01  0.1052630E+02 -0.2310450E+00  0.8710262E-01  0.2515485E+01  0.7058053E-01 -0.5104171E-01
  0.2145990E+01  0.1078860E+02 -0.2310450E+00  0.7457001E-01  0.2668629E+01  0.6638386E-01 -0.3396865E-01
  0.1078190E+01  0.1094700E+02 -0.2310450E+00  0.6447977E-01  0.2890770E+01  0.6246211E-01 -0.1600392E-01
 -0.4808250E-06  0.1100000E+02 -0.2310450E+00  0.5903684E-01 -0.3093456E+01  0.5896845E-01  0.2840725E-02
 -0.1078190E+01  0.1094700E+02 -0.2310450E+00  0.6028975E-01 -0.2761951E+01  0.5599697E-01  0.2234264E-01
 -0.2145990E+01  0.1078860E+02 -0.2310450E+00  0.6836734E-01 -0.2472682E+01  0.5363403E-01  0.4239674E-01
 -0.3193130E+01  0.1052630E+02 -0.2310450E+00  0.8136198E-01 -0.2262255E+01  0.5188141E-01  0.6267449E-01
 -0.4209520E+01  0.1016270E+02 -0.2310450E+00  0.9728467E-01 -0.2120587E+01  0.5083206E-01  0.8294822E-01
 -0.5185370E+01  0.9701130E+01 -0.2310450E+00  0.1147524E+00 -0.2026269E+01  0.5047812E-01  0.1030537E+00
 -0.6111270E+01  0.9146160E+01 -0.2310450E+00  0.1328921E+00 -0.1963102E+01  0.5080722E-01  0.1227963E+00
 -0.6978330E+01  0.8503120E+01 -0.2310450E+00  0.1511517E+00 -0.1919981E+01  0.5171386E-01  0.1420300E+00
 -0.7778170E+01  0.7778170E+01 -0.2310450E+00  0.1689602E+00 -0.1890980E+01  0.5317861E-01  0.1603732E+00
 -0.8503120E+01  0.6978330E+01 -0.2310450E+00  0.1861102E+00 -0.1871382E+01  0.5510354E-01  0.1777656E+00
 -0.9146170E+01  0.6111270E+01 -0.2310450E+00  0.2022888E+00 -0.1858446E+01  0.5738920E-01  0.1939774E+00
 -0.9701130E+01  0.5185360E+01 -0.2310450E+00  0.2174936E+00 -0.1849776E+01  0.5989236E-01  0.2090846E+00
 -0.1016270E+02  0.4209520E+01 -0.2310450E+00  0.2312278E+00 -0.1844498E+01  0.6250021E-01  0.2226208E+00
 -0.1052630E+02  0.3193130E+01 -0.2310450E+00  0.2435131E+00 -0.1841389E+01  0.6509176E-01  0.2346522E+00
 -0.1078860E+02  0.2145990E+01 -0.2310450E+00  0.2540860E+00 -0.1839857E+01  0.6754266E-01  0.2449443E+00
 -0.1094700E+02  0.1078190E+01 -0.2310450E+00  0.2631852E+00 -0.1839067E+01  0.6976094E-01  0.2537713E+00
 -0.1100000E+02 -0.9616510E-06 -0.2310450E+00  0.2703072E+00 -0.1838931E+01  0.7161328E-01  0.2606483E+00
 -0.1094700E+02 -0.1078190E+01 -0.2310450E+00  0.2755890E+00 -0.1838998E+01  0.7303058E-01  0.2657364E+00
 -0.1078860E+02 -0.2146000E+01 -0.2310450E+00  0.2787947E+00 -0.1839210E+01  0.7393698E-01  0.2688119E+00
 -0.1052630E+02 -0.3193130E+01 -0.2310450E+00  0.2803214E+00 -0.1839221E+01  0.7434478E-01  0.2702831E+00
 -0.1016270E+02 -0.4209520E+01 -0.2310450E+00  0.2797104E+00 -0.1839210E+01  0.7417975E-01  0.2696948E+00
 -0.9701130E+01 -0.5185360E+01 -0.2310450E+00  0.2771718E+00 -0.1839058E+01  0.7346606E-01  0.2672582E+00
 -0.9146160E+01 -0.6111270E+01 -0.2310450E+00  0.2725205E+00 -0.1839002E+01  0.7221849E-01  0.2627773E+00
 -0.8503110E+01 -0.6978330E+01 -0.2310450E+00  0.2662407E+00 -0.1838958E+01  0.7054289E-01  0.2567252E+00
 -0.7778170E+01 -0.7778180E+01 -0.2310450E+00  0.2579924E+00 -0.1839416E+01  0.6847136E-01  0.2487403E+00
 -0.6978330E+01 -0.8503110E+01 -0.2310450E+00  0.2480196E+00 -0.1840592E+01  0.6610577E-01  0.2390476E+00
 -0.6111270E+01 -0.9146170E+01 -0.2310450E+00  0.2362284E+00 -0.1843146E+01  0.6354437E-01  0.2275213E+00
 -0.5185360E+01 -0.9701130E+01 -0.2310450E+00  0.2231237E+00 -0.1847352E+01  0.6092248E-01  0.2146454E+00
 -0.4209510E+01 -0.1016270E+02 -0.2310450E+00  0.2085503E+00 -0.1854429E+01  0.5836167E-01  0.2002177E+00
 -0.3193130E+01 -0.1052630E+02 -0.2310450E+00  0.1927829E+00 -0.1865451E+01  0.5598605E-01  0.1844745E+00
 -0.2145990E+01 -0.1078860E+02 -0.2310450E+00  0.1758655E+00 -0.1882392E+01  0.5391642E-01  0.1673968E+00
 -0.1078190E+01 -0.1094700E+02 -0.2310450E+00  0.1582945E+00 -0.1907087E+01  0.5223525E-01  0.1494276E+00
  0.1311740E-06 -0.1100000E+02 -0.2310450E+00  0.1402155E+00 -0.1943687E+01  0.5108176E-01  0.1305797E+00
  0.1078190E+01 -0.1094700E+02 -0.2310450E+00  0.1220266E+00 -0.1997700E+01  0.5052566E-01  0.1110749E+00
  0.2145990E+01 -0.1078860E+02 -0.2310450E+00  0.1041556E+00 -0.2078470E+01  0.5063479E-01  0.9101926E-01
  0.3193140E+01 -0.1052630E+02 -0.2310450E+00  0.8743167E-01 -0.2198981E+01  0.5138159E-01  0.7074057E-01
  0.4209520E+01 -0.1016270E+02 -0.2310450E+00  0.7306483E-01 -0.2379101E+01  0.5283443E-01  0.5046773E-01
  0.5185360E+01 -0.9701130E+01 -0.2310450E+00  0.6279256E-01 -0.2636883E+01  0.5496327E-01  0.3036354E-01
  0.6111270E+01 -0.9146160E+01 -0.2310450E+00  0.5870231E-01 -0.2959620E+01  0.5773306E-01  0.1062332E-01
  0.6978330E+01 -0.8503110E+01 -0.2310450E+00  0.6162136E-01  0.3001453E+01  0.6101726E-01 -0.8607355E-02
  0.7778180E+01 -0.7778170E+01 -0.2310450E+00  0.7014693E-01  0.2747317E+01  0.6476492E-01 -0.2694620E-01
  0.8503120E+01 -0.6978320E+01 -0.2310450E+00  0.8189959E-01  0.2569579E+01  0.6886220E-01 -0.4433442E-01
  0.9146170E+01 -0.6111270E+01 -0.2310450E+00  0.9498034E-01  0.2450470E+01  0.7318532E-01 -0.6054069E-01
  0.9701130E+01 -0.5185360E+01 -0.2310450E+00  0.1083549E+00  0.2368853E+01  0.7758220E-01 -0.7564255E-01
  0.1016270E+02 -0.4209520E+01 -0.2310450E+00  0.1210807E+00  0.2313745E+01  0.8190655E-01 -0.8917317E-01
  0.1052630E+02 -0.3193130E+01 -0.2310450E+00  0.1328244E+00  0.2275345E+01  0.8602906E-01 -0.1011994E+00
  0.1078860E+02 -0.2145990E+01 -0.2310450E+00  0.1431577E+00  0.2248891E+01  0.8980425E-01 -0.1114868E+00
  0.1094700E+02 -0.1078180E+01 -0.2310450E+00  0.1521519E+00  0.2229609E+01  0.9314418E-01 -0.1203094E+00
  0.1100000E+02  0.0000000E+00 -0.4105000E+00  0.1585591E+00  0.2216504E+01  0.9541509E-01 -0.1266370E+00
  0.1094700E+02  0.1078190E+01 -0.4105000E+00  0.1638701E+00  0.2207917E+01  0.9748362E-01 -0.1317208E+00
  0.1078860E+02  0.2145990E+01 -0.4105000E+00  0.1671682E+00  0.2203156E+01  0.9880465E-01 -0.1348438E+00
  0.1052630E+02  0.3193130E+01 -0.4105000E+00  0.1686370E+00  0.2200985E+01  0.9937727E-01 -0.1362446E+00
  0.1016270E+02  0.4209520E+01 -0.4105000E+00  0.1680037E+00  0.2201945E+01  0.9913432E-01 -0.1356379E+00
  0.9701130E+01  0.5185360E+01 -0.4105000E+00  0.1654607E+00  0.2205528E+01  0.9811191E-01 -0.1332340E+00
  0.9146170E+01  0.6111270E+01 -0.4105000E+00  0.1608597E+00  0.2212742E+01  0.9631556E-01 -0.1288377E+00
  0.8503110E+01  0.6978330E+01 -0.4105000E+00  0.1545216E+00  0.2223530E+01  0.9385028E-01 -0.1227560E+00
  0.7778170E+01  0.7778170E+01 -0.4105000E+00  0.1463374E+00  0.2239834E+01  0.9076301E-01 -0.1147898E+00
  0.6978330E+01  0.8503110E+01 -0.4105000E+00  0.1365951E+00  0.2262932E+01  0.8717260E-01 -0.1051625E+00
  0.6111270E+01  0.9146170E+01 -0.4105000E+00  0.1253249E+00  0.2296527E+01  0.8317591E-01 -0.9374484E-01
  0.5185360E+01  0.9701130E+01 -0.4105000E+00  0.1130127E+00  0.2343975E+01  0.7892960E-01 -0.8088255E-01
  0.4209520E+01  0.1016270E+02 -0.4105000E+00  0.9991699E-01  0.2413256E+01  0.7456633E-01 -0.6650765E-01
  0.3193130E+01  0.1052630E+02 -0.4105000E+00  0.8670657E-01  0.2514893E+01  0.7022949E-01 -0.5085123E-01
  0.2145990E+01  0.1078860E+02 -0.4105000E+00  0.7423505E-01  0.2667534E+01  0.6604864E-01 -0.3388835E-01
  0.1078190E+01  0.1094700E+02 -0.4105000E+00  0.6416983E-01  0.2890014E+01  0.6214980E-01 -0.1597402E-01
 -0.4808250E-06  0.1100000E+02 -0.4105000E+00  0.5874118E-01 -0.3093957E+01  0.5867454E-01  0.2797091E-02
 -0.1078190E+01  0.1094700E+02 -0.4105000E+00  0.5997682E-01 -0.2762272E+01  0.5571344E-01  0.2220881E-01
 -0.2145990E+01  0.1078860E+02 -0.4105000E+00  0.6800178E-01 -0.2472809E+01  0.5335261E-01  0.4216327E-01
 -0.3193130E+01  0.1052630E+02 -0.4105000E+00  0.8094853E-01 -0.2262254E+01  0.5161770E-01  0.6235606E-01
 -0.4209520E+01  0.1016270E+02 -0.4105000E+00  0.9680474E-01 -0.2120537E+01  0.5057717E-01  0.8254155E-01
 -0.5185370E+01  0.9701130E+01 -0.4105000E+00  0.1141989E+00 -0.2026141E+01  0.5022144E-01  0.1025631E+00
 -0.6111270E+01  0.9146160E+01 -0.4105000E+00  0.1322697E+00 -0.1962866E+01  0.5054054E-01  0.1222331E+00
 -0.6978330E+01  0.8503120E+01 -0.4105000E+00  0.1504333E+00 -0.1919865E+01  0.5145162E-01  0.1413609E+00
 -0.7778170E+01  0.7778170E+01 -0.4105000E+00  0.1681577E+00 -0.1890897E+01  0.5291282E-01  0.1596159E+00