 VARIABLES="X" "Y" "Z" "abs(eta) (m)" "angle(phi) (rad)" "PRE1" "PRE2"
ZONE N=   3200 ,E =    3136 ,F=FEPOINT,ET=QUADRILATERAL
  0.1100000E+02  0.0000000E+00  0.0000000E+00  0.1109045E+00 -0.2124355E+01  0.5830445E-01  0.9434191E-01
  0.1094700E+02  0.1078190E+01  0.0000000E+00  0.9205046E-01 -0.2300678E+01  0.6137755E-01  0.6860091E-01
  0.1078860E+02  0.2145990E+01  0.0000000E+00  0.7824270E-01 -0.2561107E+01  0.6542628E-01  0.4291062E-01
  0.1052630E+02  0.3193130E+01  0.0000000E+00  0.7274732E-01 -0.2891751E+01  0.7048862E-01  0.1798684E-01
  0.1016270E+02  0.4209520E+01  0.0000000E+00  0.7649507E-01  0.3063906E+01  0.7626436E-01 -0.5936678E-02
  0.9701130E+01  0.5185360E+01  0.0000000E+00  0.8756082E-01  0.2803220E+01  0.8259578E-01 -0.2906602E-01
  0.9146170E+01  0.6111270E+01  0.0000000E+00  0.1030064E+00  0.2622005E+01  0.8941203E-01 -0.5114491E-01
  0.8503110E+01  0.6978330E+01  0.0000000E+00  0.1198722E+00  0.2506280E+01  0.9648351E-01 -0.7113564E-01
  0.7778170E+01  0.7778170E+01  0.0000000E+00  0.1367470E+00  0.2429513E+01  0.1035181E+00 -0.8935180E-01
  0.6978330E+01  0.8503110E+01  0.0000000E+00  0.1532054E+00  0.2375437E+01  0.1103969E+00 -0.1062281E+00
  0.6111270E+01  0.9146170E+01  0.0000000E+00  0.1685360E+00  0.2337670E+01  0.1169450E+00 -0.1213599E+00
  0.5185360E+01  0.9701130E+01  0.0000000E+00  0.1814081E+00  0.2314123E+01  0.1227663E+00 -0.1335565E+00
  0.4209520E+01  0.1016270E+02  0.0000000E+00  0.1922071E+00  0.2297919E+01  0.1277644E+00 -0.1435960E+00
  0.3193130E+01  0.1052630E+02  0.0000000E+00  0.2013192E+00  0.2285481E+01  0.1319404E+00 -0.1520564E+00
  0.2145990E+01  0.1078860E+02  0.0000000E+00  0.2081958E+00  0.2276922E+01  0.1350964E+00 -0.1584123E+00
  0.1078190E+01  0.1094700E+02  0.0000000E+00  0.2116591E+00  0.2273916E+01  0.1368589E+00 -0.1614597E+00
 -0.4808250E-06  0.1100000E+02  0.0000000E+00  0.2126357E+00  0.2273385E+01  0.1374041E+00 -0.1622776E+00
 -0.1078190E+01  0.1094700E+02  0.0000000E+00  0.2116594E+00  0.2273917E+01  0.1368593E+00 -0.1614597E+00
 -0.2145990E+01  0.1078860E+02  0.0000000E+00  0.2081958E+00  0.2276922E+01  0.1350963E+00 -0.1584123E+00
 -0.3193130E+01  0.1052630E+02  0.0000000E+00  0.2013194E+00  0.2285480E+01  0.1319404E+00 -0.1520566E+00
 -0.4209520E+01  0.1016270E+02  0.0000000E+00  0.1922070E+00  0.2297918E+01  0.1277642E+00 -0.1435961E+00
 -0.5185370E+01  0.9701130E+01  0.0000000E+00  0.1814079E+00  0.2314124E+01  0.1227662E+00 -0.1335562E+00
 -0.6111270E+01  0.9146160E+01  0.0000000E+00  0.1685361E+00  0.2337669E+01  0.1169450E+00 -0.1213602E+00
 -0.6978330E+01  0.8503120E+01  0.0000000E+00  0.1532057E+00  0.2375437E+01  0.1103972E+00 -0.1062282E+00
 -0.7778170E+01  0.7778170E+01  0.0000000E+00  0.1367473E+00  0.2429514E+01  0.1035184E+00 -0.8935193E-01
 -0.8503120E+01  0.6978330E+01  0.0000000E+00  0.1198724E+00  0.2506284E+01  0.9648389E-01 -0.7113542E-01
 -0.9146170E+01  0.6111270E+01  0.0000000E+00  0.1030070E+00  0.2622005E+01  0.8941256E-01 -0.5114523E-01
 -0.9701130E+01  0.5185360E+01  0.0000000E+00  0.8756102E-01  0.2803216E+01  0.8259586E-01 -0.2906639E-01
 -0.1016270E+02  0.4209520E+01  0.0000000E+00  0.7649506E-01  0.3063905E+01  0.7626434E-01 -0.5936735E-02
 -0.1052630E+02  0.3193130E+01  0.0000000E+00  0.7274740E-01 -0.2891752E+01  0.7048873E-01  0.1798675E-01
 -0.1078860E+02  0.2145990E+01  0.0000000E+00  0.7824264E-01 -0.2561110E+01  0.6542637E-01  0.4291039E-01
 -0.1094700E+02  0.1078190E+01  0.0000000E+00  0.9205029E-01 -0.2300677E+01  0.6137738E-01  0.6860083E-01
 -0.1100000E+02 -0.9616510E-06  0.0000000E+00  0.1109045E+00 -0.2124355E+01  0.5830452E-01  0.9434193E-01
 -0.1094700E+02 -0.1078190E+01  0.0000000E+00  0.1325601E+00 -0.2008140E+01  0.5614374E-01  0.1200835E+00
 -0.1078860E+02 -0.2146000E+01  0.0000000E+00  0.1558052E+00 -0.1931512E+01  0.5499054E-01  0.1457783E+00
 -0.1052630E+02 -0.3193130E+01  0.0000000E+00  0.1793465E+00 -0.1882297E+01  0.5496745E-01  0.1707154E+00
 -0.1016270E+02 -0.4209520E+01  0.0000000E+00  0.2025008E+00 -0.1850067E+01  0.5582023E-01  0.1946553E+00
 -0.9701130E+01 -0.5185360E+01  0.0000000E+00  0.2252387E+00 -0.1828494E+01  0.5740316E-01  0.2178012E+00
 -0.9146160E+01 -0.6111270E+01  0.0000000E+00  0.2472138E+00 -0.1814672E+01  0.5969350E-01  0.2398986E+00
 -0.8503110E+01 -0.6978330E+01  0.0000000E+00  0.2673386E+00 -0.1807035E+01  0.6256984E-01  0.2599134E+00
 -0.7778170E+01 -0.7778180E+01  0.0000000E+00  0.2858181E+00 -0.1802886E+01  0.6574146E-01  0.2781547E+00
 -0.6978330E+01 -0.8503110E+01  0.0000000E+00  0.3030317E+00 -0.1800783E+01  0.6908050E-01  0.2950527E+00
 -0.6111270E+01 -0.9146170E+01  0.0000000E+00  0.3185567E+00 -0.1800291E+01  0.7246710E-01  0.3102046E+00
 -0.5185360E+01 -0.9701130E+01  0.0000000E+00  0.3311739E+00 -0.1801176E+01  0.7562249E-01  0.3224242E+00
 -0.4209510E+01 -0.1016270E+02  0.0000000E+00  0.3416039E+00 -0.1802385E+01  0.7840619E-01  0.3324842E+00
 -0.3193130E+01 -0.1052630E+02  0.0000000E+00  0.3503977E+00 -0.1803457E+01  0.8079021E-01  0.3409567E+00
 -0.2145990E+01 -0.1078860E+02  0.0000000E+00  0.3570155E+00 -0.1804363E+01  0.8263074E-01  0.3473215E+00
 -0.1078190E+01 -0.1094700E+02  0.0000000E+00  0.3602279E+00 -0.1805186E+01  0.8366260E-01  0.3503779E+00
  0.1311740E-06 -0.1100000E+02  0.0000000E+00  0.3611014E+00 -0.1805508E+01  0.8397883E-01  0.3512004E+00
  0.1078190E+01 -0.1094700E+02  0.0000000E+00  0.3602280E+00 -0.1805186E+01  0.8366272E-01  0.3503780E+00
  0.2145990E+01 -0.1078860E+02  0.0000000E+00  0.3570155E+00 -0.1804363E+01  0.8263063E-01  0.3473215E+00
  0.3193140E+01 -0.1052630E+02  0.0000000E+00  0.3503976E+00 -0.1803457E+01  0.8079035E-01  0.3409566E+00
  0.4209520E+01 -0.1016270E+02  0.0000000E+00  0.3416034E+00 -0.1802385E+01  0.7840621E-01  0.3324836E+00
  0.5185360E+01 -0.9701130E+01  0.0000000E+00  0.3311737E+00 -0.1801176E+01  0.7562252E-01  0.3224241E+00
  0.6111270E+01 -0.9146160E+01  0.0000000E+00  0.3185570E+00 -0.1800291E+01  0.7246701E-01  0.3102049E+00
  0.6978330E+01 -0.8503110E+01  0.0000000E+00  0.3030318E+00 -0.1800783E+01  0.6908036E-01  0.2950528E+00
  0.7778180E+01 -0.7778170E+01  0.0000000E+00  0.2858181E+00 -0.1802886E+01  0.6574163E-01  0.2781547E+00
  0.8503120E+01 -0.6978320E+01  0.0000000E+00  0.2673385E+00 -0.1807034E+01  0.6256966E-01  0.2599133E+00
  0.9146170E+01 -0.6111270E+01  0.0000000E+00  0.2472134E+00 -0.1814672E+01  0.5969352E-01  0.2398982E+00
  0.9701130E+01 -0.5185360E+01  0.0000000E+00  0.2252388E+00 -0.1828494E+01  0.5740317E-01  0.2178013E+00
  0.1016270E+02 -0.4209520E+01  0.0000000E+00  0.2025008E+00 -0.1850066E+01  0.5582010E-01  0.1946553E+00
  0.1052630E+02 -0.3193130E+01  0.0000000E+00  0.1793464E+00 -0.1882295E+01  0.5496716E-01  0.1707154E+00
  0.1078860E+02 -0.2145990E+01  0.0000000E+00  0.1558051E+00 -0.1931512E+01  0.5499052E-01  0.1457781E+00
  0.1094700E+02 -0.1078180E+01  0.0000000E+00  0.1325597E+00 -0.2008139E+01  0.5614347E-01  0.1200833E+00
  0.1100000E+02  0.0000000E+00 -0.2568960E-01  0.1108002E+00 -0.2124344E+01  0.5824859E-01  0.9425386E-01
  0.1094700E+02  0.1078190E+01 -0.2568960E-01  0.9196359E-01 -0.2300712E+01  0.6132193E-01  0.6853410E-01
  0.1078860E+02  0.2145990E+01 -0.2568960E-01  0.7817382E-01 -0.2561116E+01  0.6536908E-01  0.4287225E-01
  0.1052630E+02  0.3193130E+01 -0.2568960E-01  0.7268066E-01 -0.2891766E+01  0.7042430E-01  0.1796931E-01
  0.1016270E+02  0.4209520E+01 -0.2568960E-01  0.7642477E-01  0.3063788E+01  0.7619357E-01 -0.5940176E-02
  0.9701130E+01  0.5185360E+01 -0.2568960E-01  0.8748377E-01  0.2803171E+01  0.8252167E-01 -0.2904452E-01
  0.9146170E+01  0.6111270E+01 -0.2568960E-01  0.1029108E+00  0.2622063E+01  0.8933200E-01 -0.5109232E-01
  0.8503110E+01  0.6978330E+01 -0.2568960E-01  0.1197647E+00  0.2506269E+01  0.9639614E-01 -0.7107297E-01
  0.7778170E+01  0.7778170E+01 -0.2568960E-01  0.1366332E+00  0.2429444E+01  0.1034258E+00 -0.8928452E-01
  0.6978330E+01  0.8503110E+01 -0.2568960E-01  0.1530705E+00  0.2375423E+01  0.1102983E+00 -0.1061361E+00
  0.6111270E+01  0.9146170E+01 -0.2568960E-01  0.1683752E+00  0.2337710E+01  0.1168383E+00 -0.1212395E+00
  0.5185360E+01  0.9701130E+01 -0.2568960E-01  0.1812458E+00  0.2314118E+01  0.1226558E+00 -0.1334377E+00
  0.4209520E+01  0.1016270E+02 -0.2568960E-01  0.1920483E+00  0.2297874E+01  0.1276524E+00 -0.1434831E+00
  0.3193130E+01  0.1052630E+02 -0.2568960E-01  0.2011407E+00  0.2285477E+01  0.1318228E+00 -0.1519221E+00
  0.2145990E+01  0.1078860E+02 -0.2568960E-01  0.2079962E+00  0.2276956E+01  0.1349722E+00 -0.1582559E+00
  0.1078190E+01  0.1094700E+02 -0.2568960E-01  0.2114710E+00  0.2273913E+01  0.1367369E+00 -0.1613165E+00
 -0.4808250E-06  0.1100000E+02 -0.2568960E-01  0.2124601E+00  0.2273347E+01  0.1372846E+00 -0.1621488E+00
 -0.1078190E+01  0.1094700E+02 -0.2568960E-01  0.2114708E+00  0.2273914E+01  0.1367369E+00 -0.1613163E+00
 -0.2145990E+01  0.1078860E+02 -0.2568960E-01  0.2079962E+00  0.2276957E+01  0.1349723E+00 -0.1582558E+00
 -0.3193130E+01  0.1052630E+02 -0.2568960E-01  0.2011407E+00  0.2285477E+01  0.1318228E+00 -0.1519222E+00
 -0.4209520E+01  0.1016270E+02 -0.2568960E-01  0.1920483E+00  0.2297875E+01  0.1276525E+00 -0.1434830E+00
 -0.5185370E+01  0.9701130E+01 -0.2568960E-01  0.1812458E+00  0.2314119E+01  0.1226559E+00 -0.1334375E+00
 -0.6111270E+01  0.9146160E+01 -0.2568960E-01  0.1683753E+00  0.2337709E+01  0.1168383E+00 -0.1212397E+00
 -0.6978330E+01  0.8503120E+01 -0.2568960E-01  0.1530707E+00  0.2375424E+01  0.1102985E+00 -0.1061362E+00
 -0.7778170E+01  0.7778170E+01 -0.2568960E-01  0.1366332E+00  0.2429442E+01  0.1034257E+00 -0.8928478E-01
 -0.8503120E+01  0.6978330E+01 -0.2568960E-01  0.1197648E+00  0.2506270E+01  0.9639631E-01 -0.7107292E-01
 -0.9146170E+01  0.6111270E+01 -0.2568960E-01  0.1029110E+00  0.2622061E+01  0.8933213E-01 -0.5109262E-01
 -0.9701130E+01  0.5185360E+01 -0.2568960E-01  0.8748404E-01  0.2803167E+01  0.8252183E-01 -0.2904488E-01
 -0.1016270E+02  0.4209520E+01 -0.2568960E-01  0.7642523E-01  0.3063786E+01  0.7619401E-01 -0.5940400E-02
 -0.1052630E+02  0.3193130E+01 -0.2568960E-01  0.7268068E-01 -0.2891768E+01  0.7042436E-01  0.1796916E-01
 -0.1078860E+02  0.2145990E+01 -0.2568960E-01  0.7817360E-01 -0.2561117E+01  0.6536893E-01  0.4287208E-01
 -0.1094700E+02  0.1078190E+01 -0.2568960E-01  0.9196354E-01 -0.2300713E+01  0.6132195E-01  0.6853402E-01
 -0.1100000E+02 -0.9616510E-06 -0.2568960E-01  0.1108003E+00 -0.2124348E+01  0.5824903E-01  0.9425374E-01
 -0.1094700E+02 -0.1078190E+01 -0.2568960E-01  0.1324393E+00 -0.2008140E+01  0.5609267E-01  0.1199741E+00
 -0.1078860E+02 -0.2146000E+01 -0.2568960E-01  0.1556596E+00 -0.1931539E+01  0.5494302E-01  0.1456406E+00
 -0.1052630E+02 -0.3193130E+01 -0.2568960E-01  0.1791801E+00 -0.1882302E+01  0.5491736E-01  0.1705568E+00
 -0.1016270E+02 -0.4209520E+01 -0.2568960E-01  0.2023204E+00 -0.1850053E+01  0.5576777E-01  0.1944826E+00
 -0.9701130E+01 -0.5185360E+01 -0.2568960E-01  0.2250347E+00 -0.1828498E+01  0.5735201E-01  0.2176036E+00
 -0.9146160E+01 -0.6111270E+01 -0.2568960E-01  0.2469790E+00 -0.1814690E+01  0.5964113E-01  0.2396697E+00
 -0.8503110E+01 -0.6978330E+01 -0.2568960E-01  0.2670935E+00 -0.1807039E+01  0.6251351E-01  0.2596748E+00
 -0.7778170E+01 -0.7778180E+01 -0.2568960E-01  0.2855678E+00 -0.1802882E+01  0.6568290E-01  0.2779114E+00
 -0.6978330E+01 -0.8503110E+01 -0.2568960E-01  0.3027565E+00 -0.1800790E+01  0.6901974E-01  0.2947843E+00
 -0.6111270E+01 -0.9146170E+01 -0.2568960E-01  0.3182526E+00 -0.1800305E+01  0.7240215E-01  0.3099075E+00
 -0.5185360E+01 -0.9701130E+01 -0.2568960E-01  0.3308710E+00 -0.1801181E+01  0.7555502E-01  0.3221290E+00
 -0.4209510E+01 -0.1016270E+02 -0.2568960E-01  0.3413059E+00 -0.1802387E+01  0.7833858E-01  0.3321939E+00
 -0.3193130E+01 -0.1052630E+02 -0.2568960E-01  0.3500796E+00 -0.1803465E+01  0.8071950E-01  0.3406466E+00
 -0.2145990E+01 -0.1078860E+02 -0.2568960E-01  0.3566740E+00 -0.1804374E+01  0.8255564E-01  0.3469883E+00
 -0.1078190E+01 -0.1094700E+02 -0.2568960E-01  0.3598999E+00 -0.1805192E+01  0.8358870E-01  0.3500584E+00
  0.1311740E-06 -0.1100000E+02 -0.2568960E-01  0.3607871E+00 -0.1805512E+01  0.8390705E-01  0.3508945E+00
  0.1078190E+01 -0.1094700E+02 -0.2568960E-01  0.3599000E+00 -0.1805193E+01  0.8358888E-01  0.3500584E+00
  0.2145990E+01 -0.1078860E+02 -0.2568960E-01  0.3566743E+00 -0.1804375E+01  0.8255594E-01  0.3469886E+00
  0.3193140E+01 -0.1052630E+02 -0.2568960E-01  0.3500794E+00 -0.1803464E+01  0.8071927E-01  0.3406464E+00
  0.4209520E+01 -0.1016270E+02 -0.2568960E-01  0.3413060E+00 -0.1802387E+01  0.7833853E-01  0.3321940E+00
  0.5185360E+01 -0.9701130E+01 -0.2568960E-01  0.3308713E+00 -0.1801181E+01  0.7555506E-01  0.3221292E+00
  0.6111270E+01 -0.9146160E+01 -0.2568960E-01  0.3182530E+00 -0.1800304E+01  0.7240198E-01  0.3099080E+00
  0.6978330E+01 -0.8503110E+01 -0.2568960E-01  0.3027567E+00 -0.1800789E+01  0.6901965E-01  0.2947845E+00
  0.7778180E+01 -0.7778170E+01 -0.2568960E-01  0.2855675E+00 -0.1802882E+01  0.6568282E-01  0.2779111E+00
  0.8503120E+01 -0.6978320E+01 -0.2568960E-01  0.2670934E+00 -0.1807038E+01  0.6251334E-01  0.2596748E+00
  0.9146170E+01 -0.6111270E+01 -0.2568960E-01  0.2469787E+00 -0.1814690E+01  0.5964111E-01  0.2396694E+00
  0.9701130E+01 -0.5185360E+01 -0.2568960E-01  0.2250346E+00 -0.1828498E+01  0.5735203E-01  0.2176035E+00
  0.1016270E+02 -0.4209520E+01 -0.2568960E-01  0.2023204E+00 -0.1850053E+01  0.5576781E-01  0.1944826E+00
  0.1052630E+02 -0.3193130E+01 -0.2568960E-01  0.1791800E+00 -0.1882301E+01  0.5491712E-01  0.1705566E+00
  0.1078860E+02 -0.2145990E+01 -0.2568960E-01  0.1556595E+00 -0.1931539E+01  0.5494295E-01  0.1456404E+00
  0.1094700E+02 -0.1078180E+01 -0.2568960E-01  0.1324390E+00 -0.2008141E+01  0.5609258E-01  0.1199738E+00
  0.1100000E+02  0.0000000E+00 -0.1027320E+00  0.1104850E+00 -0.2124267E+01  0.5807565E-01  0.9399015E-01
  0.1094700E+02  0.1078190E+01 -0.1027320E+00  0.9170018E-01 -0.2300726E+01  0.6114726E-01  0.6833693E-01
  0.1078860E+02  0.2145990E+01 -0.1027320E+00  0.7796149E-01 -0.2561062E+01  0.6518919E-01  0.4275936E-01
  0.1052630E+02  0.3193130E+01 -0.1027320E+00  0.7247530E-01 -0.2891733E+01  0.7022473E-01  0.1792084E-01
  0.1016270E+02  0.4209520E+01 -0.1027320E+00  0.7620936E-01  0.3063545E+01  0.7597736E-01 -0.5941928E-02
  0.9701130E+01  0.5185360E+01 -0.1027320E+00  0.8724559E-01  0.2803098E+01  0.8229490E-01 -0.2897142E-01
  0.9146170E+01  0.6111270E+01 -0.1027320E+00  0.1026180E+00  0.2622262E+01  0.8908801E-01 -0.5092925E-01
  0.8503110E+01  0.6978330E+01 -0.1027320E+00  0.1194353E+00  0.2506286E+01  0.9613227E-01 -0.7087576E-01
  0.7778170E+01  0.7778170E+01 -0.1027320E+00  0.1362810E+00  0.2429319E+01  0.1031481E+00 -0.8906727E-01
  0.6978330E+01  0.8503110E+01 -0.1027320E+00  0.1526588E+00  0.2375449E+01  0.1100043E+00 -0.1058477E+00
  0.6111270E+01  0.9146170E+01 -0.1027320E+00  0.1678888E+00  0.2337885E+01  0.1165219E+00 -0.1208689E+00
  0.5185360E+01  0.9701130E+01 -0.1027320E+00  0.1807529E+00  0.2314170E+01  0.1223291E+00 -0.1330684E+00
  0.4209520E+01  0.1016270E+02 -0.1027320E+00  0.1915589E+00  0.2297839E+01  0.1273221E+00 -0.1431219E+00
  0.3193130E+01  0.1052630E+02 -0.1027320E+00  0.2005980E+00  0.2285538E+01  0.1314764E+00 -0.1515041E+00
  0.2145990E+01  0.1078860E+02 -0.1027320E+00  0.2073944E+00  0.2277122E+01  0.1346079E+00 -0.1577756E+00
  0.1078190E+01  0.1094700E+02 -0.1027320E+00  0.2108985E+00  0.2273981E+01  0.1363775E+00 -0.1608706E+00
 -0.4808250E-06  0.1100000E+02 -0.1027320E+00  0.2119197E+00  0.2273338E+01  0.1369338E+00 -0.1617377E+00
 -0.1078190E+01  0.1094700E+02 -0.1027320E+00  0.2108986E+00  0.2273981E+01  0.1363777E+00 -0.1608706E+00
 -0.2145990E+01  0.1078860E+02 -0.1027320E+00  0.2073945E+00  0.2277122E+01  0.1346079E+00 -0.1577758E+00
 -0.3193130E+01  0.1052630E+02 -0.1027320E+00  0.2005981E+00  0.2285538E+01  0.1314765E+00 -0.1515042E+00
 -0.4209520E+01  0.1016270E+02 -0.1027320E+00  0.1915589E+00  0.2297839E+01  0.1273221E+00 -0.1431219E+00
 -0.5185370E+01  0.9701130E+01 -0.1027320E+00  0.1807528E+00  0.2314171E+01  0.1223292E+00 -0.1330682E+00
 -0.6111270E+01  0.9146160E+01 -0.1027320E+00  0.1678891E+00  0.2337883E+01  0.1165219E+00 -0.1208693E+00
 -0.6978330E+01  0.8503120E+01 -0.1027320E+00  0.1526588E+00  0.2375450E+01  0.1100044E+00 -0.1058476E+00
 -0.7778170E+01  0.7778170E+01 -0.1027320E+00  0.1362813E+00  0.2429320E+01  0.1031484E+00 -0.8906746E-01
 -0.8503120E+01  0.6978330E+01 -0.1027320E+00  0.1194353E+00  0.2506285E+01  0.9613222E-01 -0.7087594E-01
 -0.9146170E+01  0.6111270E+01 -0.1027320E+00  0.1026183E+00  0.2622263E+01  0.8908833E-01 -0.5092926E-01
 -0.9701130E+01  0.5185360E+01 -0.1027320E+00  0.8724543E-01  0.2803093E+01  0.8229460E-01 -0.2897177E-01
 -0.1016270E+02  0.4209520E+01 -0.1027320E+00  0.7620952E-01  0.3063542E+01  0.7597750E-01 -0.5942146E-02
 -0.1052630E+02  0.3193130E+01 -0.1027320E+00  0.7247528E-01 -0.2891737E+01  0.7022478E-01  0.1792056E-01
 -0.1078860E+02  0.2145990E+01 -0.1027320E+00  0.7796163E-01 -0.2561065E+01  0.6518944E-01  0.4275925E-01
 -0.1094700E+02  0.1078190E+01 -0.1027320E+00  0.9170008E-01 -0.2300728E+01  0.6114733E-01  0.6833673E-01
 -0.1100000E+02 -0.9616510E-06 -0.1027320E+00  0.1104850E+00 -0.2124269E+01  0.5807580E-01  0.9399003E-01
 -0.1094700E+02 -0.1078190E+01 -0.1027320E+00  0.1320721E+00 -0.2008096E+01  0.5593178E-01  0.1196440E+00
 -0.1078860E+02 -0.2146000E+01 -0.1027320E+00  0.1552190E+00 -0.1931576E+01  0.5479291E-01  0.1452263E+00
 -0.1052630E+02 -0.3193130E+01 -0.1027320E+00  0.1786764E+00 -0.1882291E+01  0.5476111E-01  0.1700779E+00
 -0.1016270E+02 -0.4209520E+01 -0.1027320E+00  0.2017706E+00 -0.1850004E+01  0.5560675E-01  0.1939569E+00
 -0.9701130E+01 -0.5185360E+01 -0.1027320E+00  0.2244137E+00 -0.1828499E+01  0.5719410E-01  0.2170031E+00
 -0.9146160E+01 -0.6111270E+01 -0.1027320E+00  0.2462703E+00 -0.1814737E+01  0.5948126E-01  0.2389792E+00
 -0.8503110E+01 -0.6978330E+01 -0.1027320E+00  0.2663497E+00 -0.1807055E+01  0.6234351E-01  0.2589507E+00
 -0.7778170E+01 -0.7778180E+01 -0.1027320E+00  0.2848024E+00 -0.1802885E+01  0.6550752E-01  0.2771664E+00
 -0.6978330E+01 -0.8503110E+01 -0.1027320E+00  0.3019209E+00 -0.1800824E+01  0.6883925E-01  0.2939683E+00
 -0.6111270E+01 -0.9146170E+01 -0.1027320E+00  0.3173350E+00 -0.1800363E+01  0.7221144E-01  0.3090098E+00
 -0.5185360E+01 -0.9701130E+01 -0.1027320E+00  0.3299527E+00 -0.1801222E+01  0.7535844E-01  0.3212318E+00
 -0.4209510E+01 -0.1016270E+02 -0.1027320E+00  0.3403953E+00 -0.1802423E+01  0.7814141E-01  0.3313048E+00
 -0.3193130E+01 -0.1052630E+02 -0.1027320E+00  0.3491120E+00 -0.1803516E+01  0.8051392E-01  0.3397009E+00
 -0.2145990E+01 -0.1078860E+02 -0.1027320E+00  0.3556439E+00 -0.1804440E+01  0.8233997E-01  0.3459808E+00
 -0.1078190E+01 -0.1094700E+02 -0.1027320E+00  0.3589031E+00 -0.1805247E+01  0.8337626E-01  0.3490843E+00
  0.1311740E-06 -0.1100000E+02 -0.1027320E+00  0.3598258E+00 -0.1805560E+01  0.8370028E-01  0.3499556E+00
  0.1078190E+01 -0.1094700E+02 -0.1027320E+00  0.3589033E+00 -0.1805247E+01  0.8337634E-01  0.3490845E+00
  0.2145990E+01 -0.1078860E+02 -0.1027320E+00  0.3556440E+00 -0.1804440E+01  0.8234003E-01  0.3459809E+00
  0.3193140E+01 -0.1052630E+02 -0.1027320E+00  0.3491115E+00 -0.1803516E+01  0.8051386E-01  0.3397004E+00
  0.4209520E+01 -0.1016270E+02 -0.1027320E+00  0.3403952E+00 -0.1802423E+01  0.7814134E-01  0.3313047E+00
  0.5185360E+01 -0.9701130E+01 -0.1027320E+00  0.3299528E+00 -0.1801222E+01  0.7535864E-01  0.3212319E+00
  0.6111270E+01 -0.9146160E+01 -0.1027320E+00  0.3173351E+00 -0.1800363E+01  0.7221138E-01  0.3090099E+00
  0.6978330E+01 -0.8503110E+01 -0.1027320E+00  0.3019209E+00 -0.1800823E+01  0.6883916E-01  0.2939684E+00
  0.7778180E+01 -0.7778170E+01 -0.1027320E+00  0.2848019E+00 -0.1802884E+01  0.6550730E-01  0.2771658E+00
  0.8503120E+01 -0.6978320E+01 -0.1027320E+00  0.2663490E+00 -0.1807055E+01  0.6234335E-01  0.2589500E+00
  0.9146170E+01 -0.6111270E+01 -0.1027320E+00  0.2462699E+00 -0.1814737E+01  0.5948123E-01  0.2389788E+00
  0.9701130E+01 -0.5185360E+01 -0.1027320E+00  0.2244136E+00 -0.1828500E+01  0.5719418E-01  0.2170029E+00
  0.1016270E+02 -0.4209520E+01 -0.1027320E+00  0.2017706E+00 -0.1850003E+01  0.5560657E-01  0.1939569E+00
  0.1052630E+02 -0.3193130E+01 -0.1027320E+00  0.1786765E+00 -0.1882291E+01  0.5476107E-01  0.1700779E+00
  0.1078860E+02 -0.2145990E+01 -0.1027320E+00  0.1552188E+00 -0.1931575E+01  0.5479274E-01  0.1452261E+00
  0.1094700E+02 -0.1078180E+01 -0.1027320E+00  0.1320721E+00 -0.2008098E+01  0.5593210E-01  0.1196438E+00
  0.1100000E+02  0.0000000E+00 -0.2310450E+00  0.1099616E+00 -0.2124129E+01  0.5778764E-01  0.9355287E-01
  0.1094700E+02  0.1078190E+01 -0.2310450E+00  0.9125425E-01 -0.2300837E+01  0.6085742E-01  0.6799788E-01
  0.1078860E+02  0.2145990E+01 -0.2310450E+00  0.7759843E-01 -0.2561216E+01  0.6489217E-01  0.4255023E-01
  0.1052630E+02  0.3193130E+01 -0.2310450E+00  0.7212716E-01 -0.2892142E+01  0.6989469E-01  0.1780614E-01
  0.1016270E+02  0.4209520E+01 -0.2310450E+00  0.7585662E-01  0.3062522E+01  0.7561961E-01 -0.5991808E-02
  0.9701130E+01  0.5185360E+01 -0.2310450E+00  0.8687049E-01  0.2802369E+01  0.8192003E-01 -0.2890659E-01
  0.9146170E+01  0.6111270E+01 -0.2310450E+00  0.1021659E+00  0.2622070E+01  0.8868580E-01 -0.5072187E-01
  0.8503110E+01  0.6978330E+01 -0.2310450E+00  0.1189363E+00  0.2505815E+01  0.9569737E-01 -0.7062480E-01
  0.7778170E+01  0.7778170E+01 -0.2310450E+00  0.1357568E+00  0.2428642E+01  0.1026912E+00 -0.8879425E-01
  0.6978330E+01  0.8503110E+01 -0.2310450E+00  0.1520415E+00  0.2375067E+01  0.1095193E+00 -0.1054616E+00
  0.6111270E+01  0.9146170E+01 -0.2310450E+00  0.1671534E+00  0.2337785E+01  0.1159995E+00 -0.1203510E+00
  0.5185360E+01  0.9701130E+01 -0.2310450E+00  0.1800153E+00  0.2313873E+01  0.1217906E+00 -0.1325616E+00
  0.4209520E+01  0.1016270E+02 -0.2310450E+00  0.1908359E+00  0.2297395E+01  0.1267783E+00 -0.1426380E+00
  0.3193130E+01  0.1052630E+02 -0.2310450E+00  0.1997875E+00  0.2285278E+01  0.1309059E+00 -0.1509261E+00
  0.2145990E+01  0.1078860E+02 -0.2310450E+00  0.2064856E+00  0.2277049E+01  0.1340066E+00 -0.1570940E+00
  0.1078190E+01  0.1094700E+02 -0.2310450E+00  0.2100430E+00  0.2273739E+01  0.1357855E+00 -0.1602509E+00
 -0.4808250E-06  0.1100000E+02 -0.2310450E+00  0.2111210E+00  0.2272951E+01  0.1363555E+00 -0.1611808E+00
 -0.1078190E+01  0.1094700E+02 -0.2310450E+00  0.2100429E+00  0.2273738E+01  0.1357854E+00 -0.1602509E+00
 -0.2145990E+01  0.1078860E+02 -0.2310450E+00  0.2064856E+00  0.2277049E+01  0.1340065E+00 -0.1570941E+00
 -0.3193130E+01  0.1052630E+02 -0.2310450E+00  0.1997874E+00  0.2285277E+01  0.1309057E+00 -0.1509262E+00
 -0.4209520E+01  0.1016270E+02 -0.2310450E+00  0.1908360E+00  0.2297396E+01  0.1267784E+00 -0.1426380E+00
 -0.5185370E+01  0.9701130E+01 -0.2310450E+00  0.1800153E+00  0.2313874E+01  0.1217906E+00 -0.1325615E+00
 -0.6111270E+01  0.9146160E+01 -0.2310450E+00  0.1671535E+00  0.2337786E+01  0.1159997E+00 -0.1203511E+00
 -0.6978330E+01  0.8503120E+01 -0.2310450E+00  0.1520417E+00  0.2375067E+01  0.1095194E+00 -0.1054617E+00
 -0.7778170E+01  0.7778170E+01 -0.2310450E+00  0.1357569E+00  0.2428643E+01  0.1026913E+00 -0.8879426E-01
 -0.8503120E+01  0.6978330E+01 -0.2310450E+00  0.1189358E+00  0.2505817E+01  0.9569708E-01 -0.7062429E-01
 -0.9146170E+01  0.6111270E+01 -0.2310450E+00  0.1021660E+00  0.2622070E+01  0.8868584E-01 -0.5072188E-01
 -0.9701130E+01  0.5185360E+01 -0.2310450E+00  0.8687056E-01  0.2802371E+01  0.8192013E-01 -0.2890650E-01
 -0.1016270E+02  0.4209520E+01 -0.2310450E+00  0.7585658E-01  0.3062517E+01  0.7561954E-01 -0.5992151E-02
 -0.1052630E+02  0.3193130E+01 -0.2310450E+00  0.7212732E-01 -0.2892145E+01  0.6989491E-01  0.1780595E-01
 -0.1078860E+02  0.2145990E+01 -0.2310450E+00  0.7759845E-01 -0.2561219E+01  0.6489230E-01  0.4255007E-01
 -0.1094700E+02  0.1078190E+01 -0.2310450E+00  0.9125431E-01 -0.2300839E+01  0.6085762E-01  0.6799779E-01
 -0.1100000E+02 -0.9616510E-06 -0.2310450E+00  0.1099614E+00 -0.2124129E+01  0.5778749E-01  0.9355274E-01
 -0.1094700E+02 -0.1078190E+01 -0.2310450E+00  0.1314740E+00 -0.2007977E+01  0.5566437E-01  0.1191088E+00
 -0.1078860E+02 -0.2146000E+01 -0.2310450E+00  0.1545088E+00 -0.1931582E+01  0.5454304E-01  0.1445615E+00
 -0.1052630E+02 -0.3193130E+01 -0.2310450E+00  0.1778733E+00 -0.1882202E+01  0.5449986E-01  0.1693182E+00
 -0.1016270E+02 -0.4209520E+01 -0.2310450E+00  0.2009034E+00 -0.1849842E+01  0.5533657E-01  0.1931322E+00
 -0.9701130E+01 -0.5185360E+01 -0.2310450E+00  0.2234378E+00 -0.1828426E+01  0.5692950E-01  0.2160636E+00
 -0.9146160E+01 -0.6111270E+01 -0.2310450E+00  0.2451560E+00 -0.1814740E+01  0.5921299E-01  0.2378977E+00
 -0.8503110E+01 -0.6978330E+01 -0.2310450E+00  0.2651876E+00 -0.1807001E+01  0.6205763E-01  0.2578242E+00
 -0.7778170E+01 -0.7778180E+01 -0.2310450E+00  0.2836172E+00 -0.1802804E+01  0.6521259E-01  0.2760182E+00
 -0.6978330E+01 -0.8503110E+01 -0.2310450E+00  0.3006241E+00 -0.1800797E+01  0.6853566E-01  0.2927076E+00
 -0.6111270E+01 -0.9146170E+01 -0.2310450E+00  0.3159057E+00 -0.1800374E+01  0.7188937E-01  0.3076172E+00
 -0.5185360E+01 -0.9701130E+01 -0.2310450E+00  0.3285321E+00 -0.1801201E+01  0.7502753E-01  0.3198503E+00
 -0.4209510E+01 -0.1016270E+02 -0.2310450E+00  0.3389966E+00 -0.1802391E+01  0.7780974E-01  0.3299460E+00
 -0.3193130E+01 -0.1052630E+02 -0.2310450E+00  0.3476175E+00 -0.1803512E+01  0.8016776E-01  0.3382471E+00
 -0.2145990E+01 -0.1078860E+02 -0.2310450E+00  0.3540451E+00 -0.1804454E+01  0.8197466E-01  0.3444242E+00
 -0.1078190E+01 -0.1094700E+02 -0.2310450E+00  0.3573660E+00 -0.1805243E+01  0.8301789E-01  0.3475896E+00
  0.1311740E-06 -0.1100000E+02 -0.2310450E+00  0.3583514E+00 -0.1805544E+01  0.8335162E-01  0.3485229E+00
  0.1078190E+01 -0.1094700E+02 -0.2310450E+00  0.3573659E+00 -0.1805244E+01  0.8301814E-01  0.3475894E+00
  0.2145990E+01 -0.1078860E+02 -0.2310450E+00  0.3540451E+00 -0.1804454E+01  0.8197480E-01  0.3444243E+00
  0.3193140E+01 -0.1052630E+02 -0.2310450E+00  0.3476176E+00 -0.1803511E+01  0.8016756E-01  0.3382472E+00
  0.4209520E+01 -0.1016270E+02 -0.2310450E+00  0.3389963E+00 -0.1802390E+01  0.7780956E-01  0.3299457E+00
  0.5185360E+01 -0.9701130E+01 -0.2310450E+00  0.3285320E+00 -0.1801201E+01  0.7502746E-01  0.3198501E+00
  0.6111270E+01 -0.9146160E+01 -0.2310450E+00  0.3159062E+00 -0.1800373E+01  0.7188940E-01  0.3076177E+00
  0.6978330E+01 -0.8503110E+01 -0.2310450E+00  0.3006243E+00 -0.1800796E+01  0.6853550E-01  0.2927077E+00
  0.7778180E+01 -0.7778170E+01 -0.2310450E+00  0.2836169E+00 -0.1802803E+01  0.6521221E-01  0.2760180E+00
  0.8503120E+01 -0.6978320E+01 -0.2310450E+00  0.2651875E+00 -0.1807000E+01  0.6205748E-01  0.2578242E+00
  0.9146170E+01 -0.6111270E+01 -0.2310450E+00  0.2451557E+00 -0.1814740E+01  0.5921278E-01  0.2378974E+00
  0.9701130E+01 -0.5185360E+01 -0.2310450E+00  0.2234378E+00 -0.1828426E+01  0.5692950E-01  0.2160636E+00
  0.1016270E+02 -0.4209520E+01 -0.2310450E+00  0.2009034E+00 -0.1849842E+01  0.5533643E-01  0.1931323E+00
  0.1052630E+02 -0.3193130E+01 -0.2310450E+00  0.1778733E+00 -0.1882201E+01  0.5449966E-01  0.1693184E+00
  0.1078860E+02 -0.2145990E+01 -0.2310450E+00  0.1545086E+00 -0.1931581E+01  0.5454293E-01  0.1445614E+00
  0.1094700E+02 -0.1078180E+01 -0.2310450E+00  0.1314739E+00 -0.2007978E+01  0.5566449E-01  0.1191085E+00
  0.1100000E+02  0.0000000E+00 -0.4105000E+00  0.1092401E+00 -0.2124025E+01  0.5739882E-01  0.9294506E-01
  0.1094700E+02  0.1078190E+01 -0.4105000E+00  0.9064243E-01 -0.2301034E+01  0.6046273E-01  0.6753006E-01
  0.1078860E+02  0.2145990E+01 -0.4105000E+00  0.7710211E-01 -0.2561502E+01  0.6448919E-01  0.4225967E-01
  0.1052630E+02  0.3193130E+01 -0.4105000E+00  0.7165055E-01 -0.2892830E+01  0.6944498E-01  0.1764074E-01
  0.1016270E+02  0.4209520E+01 -0.4105000E+00  0.7537483E-01  0.3061159E+01  0.7513114E-01 -0.6056157E-02
  0.9701130E+01  0.5185360E+01 -0.4105000E+00  0.8635436E-01  0.2801369E+01  0.8140454E-01 -0.2881623E-01
  0.9146170E+01  0.6111270E+01 -0.4105000E+00  0.1015430E+00  0.2621835E+01  0.8813319E-01 -0.5043338E-01
  0.8503110E+01  0.6978330E+01 -0.4105000E+00  0.1182519E+00  0.2505137E+01  0.9509911E-01 -0.7028285E-01
  0.7778170E+01  0.7778170E+01 -0.4105000E+00  0.1350243E+00  0.2427756E+01  0.1020589E+00 -0.8840562E-01
  0.6978330E+01  0.8503110E+01 -0.4105000E+00  0.1511883E+00  0.2374521E+01  0.1088475E+00 -0.1049291E+00
  0.6111270E+01  0.9146170E+01 -0.4105000E+00  0.1661323E+00  0.2337650E+01  0.1152747E+00 -0.1196314E+00
  0.5185360E+01  0.9701130E+01 -0.4105000E+00  0.1789985E+00  0.2313439E+01  0.1210455E+00 -0.1318653E+00
  0.4209520E+01  0.1016270E+02 -0.4105000E+00  0.1898206E+00  0.2296804E+01  0.1260199E+00 -0.1419537E+00
  0.3193130E+01  0.1052630E+02 -0.4105000E+00  0.1986655E+00  0.2284887E+01  0.1301120E+00 -0.1501294E+00
  0.2145990E+01  0.1078860E+02 -0.4105000E+00  0.2052215E+00  0.2276939E+01  0.1331689E+00 -0.1561470E+00
  0.1078190E+01  0.1094700E+02 -0.4105000E+00  0.2088605E+00  0.2273374E+01  0.1349630E+00 -0.1593979E+00
 -0.4808250E-06  0.1100000E+02 -0.4105000E+00  0.2099989E+00  0.2272429E+01  0.1355470E+00 -0.1603949E+00
 -0.1078190E+01  0.1094700E+02 -0.4105000E+00  0.2088605E+00  0.2273374E+01  0.1349629E+00 -0.1593980E+00
 -0.2145990E+01  0.1078860E+02 -0.4105000E+00  0.2052216E+00  0.2276938E+01  0.1331690E+00 -0.1561472E+00
 -0.3193130E+01  0.1052630E+02 -0.4105000E+00  0.1986654E+00  0.2284887E+01  0.1301120E+00 -0.1501293E+00
 -0.4209520E+01  0.1016270E+02 -0.4105000E+00  0.1898206E+00  0.2296804E+01  0.1260199E+00 -0.1419536E+00
 -0.5185370E+01  0.9701130E+01 -0.4105000E+00  0.1789985E+00  0.2313439E+01  0.1210454E+00 -0.1318653E+00
 -0.6111270E+01  0.9146160E+01 -0.4105000E+00  0.1661324E+00  0.2337649E+01  0.1152747E+00 -0.1196315E+00
 -0.6978330E+01  0.8503120E+01 -0.4105000E+00  0.1511884E+00  0.2374521E+01  0.1088475E+00 -0.1049293E+00
 -0.7778170E+01  0.7778170E+01 -0.4105000E+00  0.1350244E+00  0.2427757E+01  0.1020590E+00 -0.8840563E-01