 VARIABLES="X" "Y" "Z" "abs(eta) (m)" "angle(phi) (rad)" "PRE1" "PRE2"
ZONE N=   3200 ,E =    3136 ,F=FEPOINT,ET=QUADRILATERAL
  0.1010000E+02  0.0000000E+00  0.0000000E+00  0.3779465E+00 -0.1813074E+01  0.9067488E-01  0.3669082E+00
  0.1005140E+02  0.9899730E+00  0.0000000E+00  0.3678291E+00 -0.1811202E+01  0.8757887E-01  0.3572509E+00
  0.9905930E+01  0.1970410E+01  0.0000000E+00  0.3549334E+00 -0.1809007E+01  0.8375142E-01  0.3449107E+00
  0.9665100E+01  0.2931880E+01  0.0000000E+00  0.3400535E+00 -0.1806820E+01  0.7951766E-01  0.3306256E+00
  0.9331180E+01  0.3865100E+01  0.0000000E+00  0.3231600E+00 -0.1805785E+01  0.7524183E-01  0.3142786E+00
  0.8907400E+01  0.4761110E+01  0.0000000E+00  0.3037754E+00 -0.1806580E+01  0.7096360E-01  0.2953704E+00
  0.8397840E+01  0.5611260E+01  0.0000000E+00  0.2820345E+00 -0.1809560E+01  0.6670170E-01  0.2740335E+00
  0.7807410E+01  0.6407370E+01  0.0000000E+00  0.2589029E+00 -0.1816033E+01  0.6285812E-01  0.2511565E+00
  0.7141780E+01  0.7141780E+01  0.0000000E+00  0.2347865E+00 -0.1828415E+01  0.5981856E-01  0.2270384E+00
  0.6407370E+01  0.7807410E+01  0.0000000E+00  0.2093625E+00 -0.1849679E+01  0.5763356E-01  0.2012735E+00
  0.5611260E+01  0.8397840E+01  0.0000000E+00  0.1827288E+00 -0.1884038E+01  0.5630684E-01  0.1738372E+00
  0.4761110E+01  0.8907410E+01  0.0000000E+00  0.1560752E+00 -0.1938219E+01  0.5606402E-01  0.1456581E+00
  0.3865100E+01  0.9331180E+01  0.0000000E+00  0.1305761E+00 -0.2023067E+01  0.5706290E-01  0.1174476E+00
  0.2931870E+01  0.9665100E+01  0.0000000E+00  0.1069158E+00 -0.2159067E+01  0.5933004E-01  0.8894338E-01
  0.1970410E+01  0.9905930E+01  0.0000000E+00  0.8685175E-01 -0.2379756E+01  0.6284329E-01  0.5994954E-01
  0.9899730E+00  0.1005140E+02  0.0000000E+00  0.7439527E-01 -0.2707544E+01  0.6749664E-01  0.3128674E-01
 -0.4414850E-06  0.1010000E+02  0.0000000E+00  0.7319365E-01 -0.3088764E+01  0.7309154E-01  0.3864938E-02
 -0.9899740E+00  0.1005140E+02  0.0000000E+00  0.8270905E-01  0.2867234E+01  0.7961565E-01 -0.2240837E-01
 -0.1970410E+01  0.9905930E+01  0.0000000E+00  0.9933224E-01  0.2638565E+01  0.8702765E-01 -0.4788615E-01
 -0.2931880E+01  0.9665100E+01  0.0000000E+00  0.1192166E+00  0.2492123E+01  0.9494464E-01 -0.7209794E-01
 -0.3865100E+01  0.9331180E+01  0.0000000E+00  0.1394538E+00  0.2400781E+01  0.1029059E+00 -0.9411556E-01
 -0.4761110E+01  0.8907400E+01  0.0000000E+00  0.1589306E+00  0.2342814E+01  0.1108672E+00 -0.1138745E+00
 -0.5611260E+01  0.8397840E+01  0.0000000E+00  0.1774743E+00  0.2304183E+01  0.1187994E+00 -0.1318477E+00
 -0.6407370E+01  0.7807410E+01  0.0000000E+00  0.1945405E+00  0.2277153E+01  0.1262697E+00 -0.1479932E+00
 -0.7141780E+01  0.7141780E+01  0.0000000E+00  0.2091019E+00  0.2258970E+01  0.1328064E+00 -0.1615117E+00
 -0.7807410E+01  0.6407370E+01  0.0000000E+00  0.2208620E+00  0.2247746E+01  0.1383521E+00 -0.1721591E+00
 -0.8397840E+01  0.5611260E+01  0.0000000E+00  0.2301847E+00  0.2240630E+01  0.1429114E+00 -0.1804475E+00
 -0.8907410E+01  0.4761110E+01  0.0000000E+00  0.2371802E+00  0.2235295E+01  0.1462605E+00 -0.1867145E+00
 -0.9331180E+01  0.3865100E+01  0.0000000E+00  0.2411723E+00  0.2232295E+01  0.1481522E+00 -0.1903024E+00
 -0.9665100E+01  0.2931880E+01  0.0000000E+00  0.2418177E+00  0.2232248E+01  0.1485397E+00 -0.1908187E+00
 -0.9905930E+01  0.1970410E+01  0.0000000E+00  0.2394882E+00  0.2234113E+01  0.1474608E+00 -0.1887058E+00
 -0.1005140E+02  0.9899730E+00  0.0000000E+00  0.2347159E+00  0.2236857E+01  0.1450295E+00 -0.1845481E+00
 -0.1010000E+02 -0.8829700E-06  0.0000000E+00  0.2272129E+00  0.2242178E+01  0.1413420E+00 -0.1778992E+00
 -0.1005140E+02 -0.9899740E+00  0.0000000E+00  0.2165852E+00  0.2251927E+01  0.1363776E+00 -0.1682566E+00
 -0.9905930E+01 -0.1970410E+01  0.0000000E+00  0.2031387E+00  0.2266474E+01  0.1301929E+00 -0.1559332E+00
 -0.9665100E+01 -0.2931880E+01  0.0000000E+00  0.1877413E+00  0.2286545E+01  0.1231925E+00 -0.1416701E+00
 -0.9331180E+01 -0.3865100E+01  0.0000000E+00  0.1706160E+00  0.2316427E+01  0.1157518E+00 -0.1253448E+00
 -0.8907400E+01 -0.4761110E+01  0.0000000E+00  0.1515700E+00  0.2362866E+01  0.1078888E+00 -0.1064588E+00
 -0.8397840E+01 -0.5611260E+01  0.0000000E+00  0.1310741E+00  0.2434556E+01  0.9965437E-01 -0.8514354E-01
 -0.7807400E+01 -0.6407370E+01  0.0000000E+00  0.1107294E+00  0.2544146E+01  0.9154823E-01 -0.6228897E-01
 -0.7141780E+01 -0.7141780E+01  0.0000000E+00  0.9227812E-01  0.2714897E+01  0.8400430E-01 -0.3819069E-01
 -0.6407370E+01 -0.7807410E+01  0.0000000E+00  0.7806186E-01  0.2981520E+01  0.7706390E-01 -0.1244223E-01
 -0.5611260E+01 -0.8397850E+01  0.0000000E+00  0.7232369E-01 -0.2932933E+01  0.7075496E-01  0.1498174E-01
 -0.4761110E+01 -0.8907410E+01  0.0000000E+00  0.7835378E-01 -0.2558393E+01  0.6540226E-01  0.4314926E-01
 -0.3865100E+01 -0.9331190E+01  0.0000000E+00  0.9403239E-01 -0.2280086E+01  0.6124283E-01  0.7135410E-01
 -0.2931870E+01 -0.9665100E+01  0.0000000E+00  0.1156343E+00 -0.2099307E+01  0.5830829E-01  0.9985707E-01
 -0.1970410E+01 -0.9905930E+01  0.0000000E+00  0.1407330E+00 -0.1984594E+01  0.5658723E-01  0.1288552E+00
 -0.9899710E+00 -0.1005140E+02  0.0000000E+00  0.1672030E+00 -0.1912710E+01  0.5606165E-01  0.1575244E+00
  0.1204410E-06 -0.1010000E+02  0.0000000E+00  0.1934323E+00 -0.1867909E+01  0.5662932E-01  0.1849572E+00
  0.9899760E+00 -0.1005140E+02  0.0000000E+00  0.2191423E+00 -0.1840062E+01  0.5829711E-01  0.2112458E+00
  0.1970410E+01 -0.9905930E+01  0.0000000E+00  0.2444804E+00 -0.1823054E+01  0.6102003E-01  0.2367430E+00
  0.2931880E+01 -0.9665100E+01  0.0000000E+00  0.2688213E+00 -0.1813009E+01  0.6447704E-01  0.2609743E+00
  0.3865100E+01 -0.9331180E+01  0.0000000E+00  0.2911396E+00 -0.1807625E+01  0.6830753E-01  0.2830130E+00
  0.4761110E+01 -0.8907410E+01  0.0000000E+00  0.3113526E+00 -0.1805798E+01  0.7249689E-01  0.3027948E+00
  0.5611260E+01 -0.8397840E+01  0.0000000E+00  0.3299033E+00 -0.1806367E+01  0.7699879E-01  0.3207918E+00
  0.6407370E+01 -0.7807410E+01  0.0000000E+00  0.3466519E+00 -0.1807850E+01  0.8140752E-01  0.3369575E+00
  0.7141780E+01 -0.7141780E+01  0.0000000E+00  0.3607352E+00 -0.1809630E+01  0.8533882E-01  0.3504956E+00
  0.7807410E+01 -0.6407370E+01  0.0000000E+00  0.3719097E+00 -0.1811814E+01  0.8877160E-01  0.3611598E+00
  0.8397840E+01 -0.5611260E+01  0.0000000E+00  0.3806682E+00 -0.1814031E+01  0.9168147E-01  0.3694628E+00
  0.8907410E+01 -0.4761110E+01  0.0000000E+00  0.3872778E+00 -0.1815521E+01  0.9383315E-01  0.3757385E+00
  0.9331180E+01 -0.3865100E+01  0.0000000E+00  0.3910571E+00 -0.1816293E+01  0.9504170E-01  0.3793319E+00
  0.9665100E+01 -0.2931870E+01  0.0000000E+00  0.3916219E+00 -0.1816603E+01  0.9529684E-01  0.3798503E+00
  0.9905930E+01 -0.1970410E+01  0.0000000E+00  0.3894016E+00 -0.1816192E+01  0.9460124E-01  0.3777356E+00
  0.1005140E+02 -0.9899690E+00  0.0000000E+00  0.3849755E+00 -0.1814835E+01  0.9301926E-01  0.3735686E+00
  0.1010000E+02  0.0000000E+00 -0.2568960E-01  0.3776175E+00 -0.1813075E+01  0.9059635E-01  0.3665887E+00
  0.1005140E+02  0.9899730E+00 -0.2568960E-01  0.3675476E+00 -0.1811188E+01  0.8750683E-01  0.3569787E+00
  0.9905930E+01  0.1970410E+01 -0.2568960E-01  0.3546171E+00 -0.1809008E+01  0.8367734E-01  0.3446032E+00
  0.9665100E+01  0.2931880E+01 -0.2568960E-01  0.3397937E+00 -0.1806800E+01  0.7945032E-01  0.3303746E+00
  0.9331180E+01  0.3865100E+01 -0.2568960E-01  0.3228770E+00 -0.1805781E+01  0.7517469E-01  0.3140036E+00
  0.8907400E+01  0.4761110E+01 -0.2568960E-01  0.3035370E+00 -0.1806546E+01  0.7089767E-01  0.2951410E+00
  0.8397840E+01  0.5611260E+01 -0.2568960E-01  0.2817823E+00 -0.1809557E+01  0.6664110E-01  0.2737887E+00
  0.7807410E+01  0.6407370E+01 -0.2568960E-01  0.2587002E+00 -0.1815985E+01  0.6279675E-01  0.2509629E+00
  0.7141780E+01  0.7141780E+01 -0.2568960E-01  0.2345783E+00 -0.1828402E+01  0.5976246E-01  0.2268379E+00
  0.6407370E+01  0.7807410E+01 -0.2568960E-01  0.2091873E+00 -0.1849611E+01  0.5757171E-01  0.2011090E+00
  0.5611260E+01  0.8397840E+01 -0.2568960E-01  0.1825628E+00 -0.1884030E+01  0.5625423E-01  0.1736796E+00
  0.4761110E+01  0.8907410E+01 -0.2568960E-01  0.1559409E+00 -0.1938128E+01  0.5600242E-01  0.1455379E+00
  0.3865100E+01  0.9331180E+01 -0.2568960E-01  0.1304551E+00 -0.2023046E+01  0.5700760E-01  0.1173399E+00
  0.2931870E+01  0.9665100E+01 -0.2568960E-01  0.1068069E+00 -0.2159014E+01  0.5926494E-01  0.8885591E-01
  0.1970410E+01  0.9905930E+01 -0.2568960E-01  0.8676913E-01 -0.2379773E+01  0.6278449E-01  0.5989149E-01
  0.9899730E+00  0.1005140E+02 -0.2568960E-01  0.7431275E-01 -0.2707650E+01  0.6742509E-01  0.3124487E-01
 -0.4414850E-06  0.1010000E+02 -0.2568960E-01  0.7312442E-01 -0.3088871E+01  0.7302281E-01  0.3853471E-02
 -0.9899740E+00  0.1005140E+02 -0.2568960E-01  0.8263698E-01  0.2866858E+01  0.7953786E-01 -0.2241874E-01
 -0.1970410E+01  0.9905930E+01 -0.2568960E-01  0.9924497E-01  0.2638497E+01  0.8694793E-01 -0.4784998E-01
 -0.2931880E+01  0.9665100E+01 -0.2568960E-01  0.1191281E+00  0.2491867E+01  0.9485569E-01 -0.7206872E-01
 -0.3865100E+01  0.9331180E+01 -0.2568960E-01  0.1393368E+00  0.2400712E+01  0.1028131E+00 -0.9404370E-01
 -0.4761110E+01  0.8907400E+01 -0.2568960E-01  0.1588253E+00  0.2342619E+01  0.1107715E+00 -0.1138207E+00
 -0.5611260E+01  0.8397840E+01 -0.2568960E-01  0.1773216E+00  0.2304152E+01  0.1186931E+00 -0.1317380E+00
 -0.6407370E+01  0.7807410E+01 -0.2568960E-01  0.1944088E+00  0.2277009E+01  0.1261629E+00 -0.1479111E+00
 -0.7141780E+01  0.7141780E+01 -0.2568960E-01  0.2089278E+00  0.2258933E+01  0.1326898E+00 -0.1613823E+00
 -0.7807410E+01  0.6407370E+01 -0.2568960E-01  0.2207165E+00  0.2247627E+01  0.1382405E+00 -0.1720621E+00
 -0.8397840E+01  0.5611260E+01 -0.2568960E-01  0.2299863E+00  0.2240612E+01  0.1427849E+00 -0.1802946E+00
 -0.8907410E+01  0.4761110E+01 -0.2568960E-01  0.2370222E+00  0.2235189E+01  0.1461434E+00 -0.1866055E+00
 -0.9331180E+01  0.3865100E+01 -0.2568960E-01  0.2409716E+00  0.2232265E+01  0.1480231E+00 -0.1901485E+00
 -0.9665100E+01  0.2931880E+01 -0.2568960E-01  0.2416576E+00  0.2232144E+01  0.1484216E+00 -0.1907077E+00
 -0.9905930E+01  0.1970410E+01 -0.2568960E-01  0.2392819E+00  0.2234093E+01  0.1473301E+00 -0.1885461E+00
 -0.1005140E+02  0.9899730E+00 -0.2568960E-01  0.2345608E+00  0.2236749E+01  0.1449136E+00 -0.1844419E+00
 -0.1010000E+02 -0.8829700E-06 -0.2568960E-01  0.2270238E+00  0.2242146E+01  0.1412185E+00 -0.1777558E+00
 -0.1005140E+02 -0.9899740E+00 -0.2568960E-01  0.2164401E+00  0.2251803E+01  0.1362653E+00 -0.1681609E+00
 -0.9905930E+01 -0.1970410E+01 -0.2568960E-01  0.2029639E+00  0.2266449E+01  0.1300769E+00 -0.1558023E+00
 -0.9665100E+01 -0.2931880E+01 -0.2568960E-01  0.1876175E+00  0.2286389E+01  0.1230893E+00 -0.1415957E+00
 -0.9331180E+01 -0.3865100E+01 -0.2568960E-01  0.1704735E+00  0.2316375E+01  0.1156487E+00 -0.1252462E+00
 -0.8907400E+01 -0.4761110E+01 -0.2568960E-01  0.1514642E+00  0.2362668E+01  0.1077924E+00 -0.1064059E+00
 -0.8397840E+01 -0.5611260E+01 -0.2568960E-01  0.1309607E+00  0.2434510E+01  0.9956419E-01 -0.8507453E-01
 -0.7807400E+01 -0.6407370E+01 -0.2568960E-01  0.1106496E+00  0.2543847E+01  0.9146366E-01 -0.6227142E-01
 -0.7141780E+01 -0.7141780E+01 -0.2568960E-01  0.9219732E-01  0.2714788E+01  0.8392658E-01 -0.3816641E-01
 -0.6407370E+01 -0.7807410E+01 -0.2568960E-01  0.7798698E-01  0.2981212E+01  0.7698613E-01 -0.1245407E-01
 -0.5611260E+01 -0.8397850E+01 -0.2568960E-01  0.7225546E-01 -0.2932999E+01  0.7068919E-01  0.1496296E-01
 -0.4761110E+01 -0.8907410E+01 -0.2568960E-01  0.7826521E-01 -0.2558502E+01  0.6533306E-01  0.4309331E-01
 -0.3865100E+01 -0.9331190E+01 -0.2568960E-01  0.9394190E-01 -0.2280085E+01  0.6118381E-01  0.7128550E-01
 -0.2931870E+01 -0.9665100E+01 -0.2568960E-01  0.1155249E+00 -0.2099211E+01  0.5824365E-01  0.9976815E-01
 -0.1970410E+01 -0.9905930E+01 -0.2568960E-01  0.1406034E+00 -0.1984584E+01  0.5653388E-01  0.1287371E+00
 -0.9899710E+00 -0.1005140E+02 -0.2568960E-01  0.1670554E+00 -0.1912630E+01  0.5599957E-01  0.1573898E+00
  0.1204410E-06 -0.1010000E+02 -0.2568960E-01  0.1932588E+00 -0.1867892E+01  0.5657546E-01  0.1847923E+00
  0.9899760E+00 -0.1005140E+02 -0.2568960E-01  0.2189661E+00 -0.1839998E+01  0.5823667E-01  0.2110797E+00
  0.1970410E+01 -0.9905930E+01 -0.2568960E-01  0.2442604E+00 -0.1823048E+01  0.6096384E-01  0.2365303E+00
  0.2931880E+01 -0.9665100E+01 -0.2568960E-01  0.2686061E+00 -0.1812962E+01  0.6441323E-01  0.2607684E+00
  0.3865100E+01 -0.9331180E+01 -0.2568960E-01  0.2908837E+00 -0.1807618E+01  0.6824537E-01  0.2827648E+00
  0.4761110E+01 -0.8907410E+01 -0.2568960E-01  0.3111134E+00 -0.1805770E+01  0.7243265E-01  0.3025641E+00
  0.5611260E+01 -0.8397840E+01 -0.2568960E-01  0.3296090E+00 -0.1806367E+01  0.7693006E-01  0.3205057E+00
  0.6407370E+01 -0.7807410E+01 -0.2568960E-01  0.3463848E+00 -0.1807828E+01  0.8133749E-01  0.3366996E+00
  0.7141780E+01 -0.7141780E+01 -0.2568960E-01  0.3604203E+00 -0.1809629E+01  0.8526400E-01  0.3501897E+00
  0.7807410E+01 -0.6407370E+01 -0.2568960E-01  0.3716269E+00 -0.1811804E+01  0.8870038E-01  0.3608861E+00
  0.8397840E+01 -0.5611260E+01 -0.2568960E-01  0.3803292E+00 -0.1814034E+01  0.9160078E-01  0.3691335E+00
  0.8907410E+01 -0.4761110E+01 -0.2568960E-01  0.3869833E+00 -0.1815513E+01  0.9375899E-01  0.3754535E+00
  0.9331180E+01 -0.3865100E+01 -0.2568960E-01  0.3907167E+00 -0.1816295E+01  0.9495984E-01  0.3790015E+00
  0.9665100E+01 -0.2931870E+01 -0.2568960E-01  0.3913245E+00 -0.1816597E+01  0.9522230E-01  0.3795624E+00
  0.9905930E+01 -0.1970410E+01 -0.2568960E-01  0.3890546E+00 -0.1816195E+01  0.9451819E-01  0.3773987E+00
  0.1005140E+02 -0.9899690E+00 -0.2568960E-01  0.3846833E+00 -0.1814828E+01  0.9294610E-01  0.3732858E+00
  0.1010000E+02  0.0000000E+00 -0.1027320E+00  0.3765975E+00 -0.1813113E+01  0.9036531E-01  0.3655951E+00
  0.1005140E+02  0.9899730E+00 -0.1027320E+00  0.3665839E+00 -0.1811203E+01  0.8728293E-01  0.3560414E+00
  0.9905930E+01  0.1970410E+01 -0.1027320E+00  0.3536430E+00 -0.1809039E+01  0.8345808E-01  0.3436541E+00
  0.9665100E+01  0.2931880E+01 -0.1027320E+00  0.3389112E+00 -0.1806810E+01  0.7924732E-01  0.3295158E+00
  0.9331180E+01  0.3865100E+01 -0.1027320E+00  0.3220029E+00 -0.1805794E+01  0.7497537E-01  0.3131527E+00
  0.8907400E+01  0.4761110E+01 -0.1027320E+00  0.3027316E+00 -0.1806521E+01  0.7070236E-01  0.2943596E+00
  0.8397840E+01  0.5611260E+01 -0.1027320E+00  0.2810062E+00 -0.1809564E+01  0.6645960E-01  0.2730341E+00
  0.7807410E+01  0.6407370E+01 -0.1027320E+00  0.2580245E+00 -0.1815943E+01  0.6262206E-01  0.2503101E+00
  0.7141780E+01  0.7141780E+01 -0.1027320E+00  0.2339382E+00 -0.1828375E+01  0.5959327E-01  0.2262205E+00
  0.6407370E+01  0.7807410E+01 -0.1027320E+00  0.2086161E+00 -0.1849532E+01  0.5739862E-01  0.2005644E+00
  0.5611260E+01  0.8397840E+01 -0.1027320E+00  0.1820561E+00 -0.1884006E+01  0.5609393E-01  0.1731990E+00
  0.4761110E+01  0.8907410E+01 -0.1027320E+00  0.1555226E+00 -0.1937991E+01  0.5583246E-01  0.1451552E+00
  0.3865100E+01  0.9331180E+01 -0.1027320E+00  0.1300892E+00 -0.2022977E+01  0.5683956E-01  0.1170148E+00
  0.2931870E+01  0.9665100E+01 -0.1027320E+00  0.1064894E+00 -0.2158967E+01  0.5908458E-01  0.8859465E-01
  0.1970410E+01  0.9905930E+01 -0.1027320E+00  0.8652189E-01 -0.2379758E+01  0.6260473E-01  0.5972173E-01
  0.9899730E+00  0.1005140E+02 -0.1027320E+00  0.7408942E-01 -0.2707642E+01  0.6722219E-01  0.3115153E-01
 -0.4414850E-06  0.1010000E+02 -0.1027320E+00  0.7291470E-01 -0.3089031E+01  0.7281401E-01  0.3830714E-02
 -0.9899740E+00  0.1005140E+02 -0.1027320E+00  0.8241489E-01  0.2866375E+01  0.7931329E-01 -0.2239677E-01
 -0.1970410E+01  0.9905930E+01 -0.1027320E+00  0.9897385E-01  0.2638430E+01  0.8670720E-01 -0.4772508E-01
 -0.2931880E+01  0.9665100E+01 -0.1027320E+00  0.1188153E+00  0.2491631E+01  0.9458967E-01 -0.7190178E-01
 -0.3865100E+01  0.9331180E+01 -0.1027320E+00  0.1389691E+00  0.2400624E+01  0.1025335E+00 -0.9380456E-01
 -0.4761110E+01  0.8907400E+01 -0.1027320E+00  0.1584364E+00  0.2342436E+01  0.1104795E+00 -0.1135622E+00
 -0.5611260E+01  0.8397840E+01 -0.1027320E+00  0.1768443E+00  0.2304157E+01  0.1183743E+00 -0.1313828E+00
 -0.6407370E+01  0.7807410E+01 -0.1027320E+00  0.1939204E+00  0.2276899E+01  0.1258298E+00 -0.1475533E+00
 -0.7141780E+01  0.7141780E+01 -0.1027320E+00  0.2083811E+00  0.2258921E+01  0.1323406E+00 -0.1609616E+00
 -0.7807410E+01  0.6407370E+01 -0.1027320E+00  0.2201750E+00  0.2247552E+01  0.1378884E+00 -0.1716503E+00
 -0.8397840E+01  0.5611260E+01 -0.1027320E+00  0.2293681E+00  0.2240644E+01  0.1424069E+00 -0.1798055E+00
 -0.8907410E+01  0.4761110E+01 -0.1027320E+00  0.2364341E+00  0.2235131E+01  0.1457700E+00 -0.1861510E+00
 -0.9331180E+01  0.3865100E+01 -0.1027320E+00  0.2403418E+00  0.2232277E+01  0.1476385E+00 -0.1896497E+00
 -0.9665100E+01  0.2931880E+01 -0.1027320E+00  0.2410596E+00  0.2232092E+01  0.1480443E+00 -0.1902435E+00
 -0.9905930E+01  0.1970410E+01 -0.1027320E+00  0.2386391E+00  0.2234131E+01  0.1469415E+00 -0.1880341E+00
 -0.1005140E+02  0.9899730E+00 -0.1027320E+00  0.2339836E+00  0.2236690E+01  0.1445462E+00 -0.1839964E+00
 -0.1010000E+02 -0.8829700E-06 -0.1027320E+00  0.2264302E+00  0.2242148E+01  0.1408498E+00 -0.1772906E+00
 -0.1005140E+02 -0.9899740E+00 -0.1027320E+00  0.2158992E+00  0.2251721E+01  0.1359111E+00 -0.1677517E+00
 -0.9905930E+01 -0.1970410E+01 -0.1027320E+00  0.2024183E+00  0.2266470E+01  0.1297304E+00 -0.1553807E+00
 -0.9665100E+01 -0.2931880E+01 -0.1027320E+00  0.1871584E+00  0.2286265E+01  0.1227705E+00 -0.1412645E+00
 -0.9331180E+01 -0.3865100E+01 -0.1027320E+00  0.1700262E+00  0.2316325E+01  0.1153391E+00 -0.1249232E+00
 -0.8907400E+01 -0.4761110E+01 -0.1027320E+00  0.1510767E+00  0.2362494E+01  0.1074982E+00 -0.1061523E+00
 -0.8397840E+01 -0.5611260E+01 -0.1027320E+00  0.1306066E+00  0.2434477E+01  0.9929218E-01 -0.8484778E-01
 -0.7807400E+01 -0.6407370E+01 -0.1027320E+00  0.1103725E+00  0.2543501E+01  0.9121310E-01 -0.6214700E-01
 -0.7141780E+01 -0.7141780E+01 -0.1027320E+00  0.9194677E-01  0.2714617E+01  0.8369199E-01 -0.3807701E-01
 -0.6407370E+01 -0.7807410E+01 -0.1027320E+00  0.7776158E-01  0.2980962E+01  0.7676052E-01 -0.1243729E-01
 -0.5611260E+01 -0.8397850E+01 -0.1027320E+00  0.7205025E-01 -0.2933064E+01  0.7048939E-01  0.1491592E-01
 -0.4761110E+01 -0.8907410E+01 -0.1027320E+00  0.7802349E-01 -0.2558688E+01  0.6513925E-01  0.4294816E-01
 -0.3865100E+01 -0.9331190E+01 -0.1027320E+00  0.9367131E-01 -0.2280040E+01  0.6100437E-01  0.7108293E-01
 -0.2931870E+01 -0.9665100E+01 -0.1027320E+00  0.1152050E+00 -0.2099041E+01  0.5806532E-01  0.9950176E-01
 -0.1970410E+01 -0.9905930E+01 -0.1027320E+00  0.1402106E+00 -0.1984549E+01  0.5637142E-01  0.1283794E+00
 -0.9899710E+00 -0.1005140E+02 -0.1027320E+00  0.1665887E+00 -0.1912533E+01  0.5582790E-01  0.1569555E+00
  0.1204410E-06 -0.1010000E+02 -0.1027320E+00  0.1927280E+00 -0.1867844E+01  0.5641116E-01  0.1842874E+00
  0.9899760E+00 -0.1005140E+02 -0.1027320E+00  0.2183914E+00 -0.1839923E+01  0.5806790E-01  0.2105301E+00
  0.1970410E+01 -0.9905930E+01 -0.1027320E+00  0.2435865E+00 -0.1823044E+01  0.6079452E-01  0.2358780E+00
  0.2931880E+01 -0.9665100E+01 -0.1027320E+00  0.2678873E+00 -0.1812916E+01  0.6422888E-01  0.2600736E+00
  0.3865100E+01 -0.9331180E+01 -0.1027320E+00  0.2900947E+00 -0.1807617E+01  0.6806002E-01  0.2819978E+00
  0.4761110E+01 -0.8907410E+01 -0.1027320E+00  0.3103043E+00 -0.1805763E+01  0.7224198E-01  0.3017778E+00
  0.5611260E+01 -0.8397840E+01 -0.1027320E+00  0.3287027E+00 -0.1806390E+01  0.7672597E-01  0.3196226E+00
  0.6407370E+01 -0.7807410E+01 -0.1027320E+00  0.3454729E+00 -0.1807830E+01  0.8112407E-01  0.3358130E+00
  0.7141780E+01 -0.7141780E+01 -0.1027320E+00  0.3594463E+00 -0.1809659E+01  0.8504405E-01  0.3492409E+00
  0.7807410E+01 -0.6407370E+01 -0.1027320E+00  0.3706612E+00 -0.1811831E+01  0.8847977E-01  0.3599459E+00
  0.8397840E+01 -0.5611260E+01 -0.1027320E+00  0.3792849E+00 -0.1814074E+01  0.9136390E-01  0.3681163E+00
  0.8907410E+01 -0.4761110E+01 -0.1027320E+00  0.3859729E+00 -0.1815542E+01  0.9352510E-01  0.3744705E+00
  0.9331180E+01 -0.3865100E+01 -0.1027320E+00  0.3896623E+00 -0.1816337E+01  0.9471960E-01  0.3779748E+00
  0.9665100E+01 -0.2931870E+01 -0.1027320E+00  0.3903049E+00 -0.1816631E+01  0.9498703E-01  0.3785702E+00
  0.9905930E+01 -0.1970410E+01 -0.1027320E+00  0.3879866E+00 -0.1816237E+01  0.9427451E-01  0.3763588E+00
  0.1005140E+02 -0.9899690E+00 -0.1027320E+00  0.3836832E+00 -0.1814862E+01  0.9271682E-01  0.3723122E+00
  0.1010000E+02  0.0000000E+00 -0.2310450E+00  0.3749519E+00 -0.1813101E+01  0.8996608E-01  0.3639987E+00
  0.1005140E+02  0.9899730E+00 -0.2310450E+00  0.3649805E+00 -0.1811178E+01  0.8689208E-01  0.3544863E+00
  0.9905930E+01  0.1970410E+01 -0.2310450E+00  0.3521633E+00 -0.1808993E+01  0.8309318E-01  0.3422200E+00
  0.9665100E+01  0.2931880E+01 -0.2310450E+00  0.3374443E+00 -0.1806799E+01  0.7890058E-01  0.3280905E+00
  0.9331180E+01  0.3865100E+01 -0.2310450E+00  0.3205899E+00 -0.1805771E+01  0.7463934E-01  0.3117802E+00
  0.8907400E+01  0.4761110E+01 -0.2310450E+00  0.3013913E+00 -0.1806478E+01  0.7037666E-01  0.2930594E+00
  0.8397840E+01  0.5611260E+01 -0.2310450E+00  0.2798150E+00 -0.1809478E+01  0.6615432E-01  0.2718824E+00
  0.7807410E+01  0.6407370E+01 -0.2310450E+00  0.2569056E+00 -0.1815907E+01  0.6234169E-01  0.2492267E+00
  0.7141780E+01  0.7141780E+01 -0.2310450E+00  0.2329000E+00 -0.1828334E+01  0.5931974E-01  0.2252189E+00
  0.6407370E+01  0.7807410E+01 -0.2310450E+00  0.2076690E+00 -0.1849483E+01  0.5712826E-01  0.1996566E+00
  0.5611260E+01  0.8397840E+01 -0.2310450E+00  0.1812560E+00 -0.1883857E+01  0.5582177E-01  0.1724462E+00
  0.4761110E+01  0.8907410E+01 -0.2310450E+00  0.1548381E+00 -0.1937897E+01  0.5557312E-01  0.1445215E+00
  0.3865100E+01  0.9331180E+01 -0.2310450E+00  0.1294920E+00 -0.2022946E+01  0.5657506E-01  0.1164793E+00
  0.2931870E+01  0.9665100E+01 -0.2310450E+00  0.1059752E+00 -0.2159085E+01  0.5880965E-01  0.8815988E-01
  0.1970410E+01  0.9905930E+01 -0.2310450E+00  0.8609550E-01 -0.2379859E+01  0.6230224E-01  0.5942111E-01
  0.9899730E+00  0.1005140E+02 -0.2310450E+00  0.7374014E-01 -0.2707699E+01  0.6690707E-01  0.3100083E-01
 -0.4414850E-06  0.1010000E+02 -0.2310450E+00  0.7257834E-01 -0.3089506E+01  0.7247991E-01  0.3778654E-02
 -0.9899740E+00  0.1005140E+02 -0.2310450E+00  0.8206135E-01  0.2865641E+01  0.7895667E-01 -0.2235866E-01
 -0.1970410E+01  0.9905930E+01 -0.2310450E+00  0.9856345E-01  0.2637618E+01  0.8630905E-01 -0.4759728E-01
 -0.2931880E+01  0.9665100E+01 -0.2310450E+00  0.1182982E+00  0.2491304E+01  0.9415459E-01 -0.7161961E-01
 -0.3865100E+01  0.9331180E+01 -0.2310450E+00  0.1383830E+00  0.2400321E+01  0.1020727E+00 -0.9343988E-01
 -0.4761110E+01  0.8907400E+01 -0.2310450E+00  0.1577889E+00  0.2342127E+01  0.1099930E+00 -0.1131321E+00
 -0.5611260E+01  0.8397840E+01 -0.2310450E+00  0.1761523E+00  0.2303716E+01  0.1178534E+00 -0.1309206E+00
 -0.6407370E+01  0.7807410E+01 -0.2310450E+00  0.1930989E+00  0.2276675E+01  0.1252637E+00 -0.1469564E+00
 -0.7141780E+01  0.7141780E+01 -0.2310450E+00  0.2075051E+00  0.2258728E+01  0.1317534E+00 -0.1603103E+00
 -0.7807410E+01  0.6407370E+01 -0.2310450E+00  0.2192640E+00  0.2247354E+01  0.1372839E+00 -0.1709674E+00
 -0.8397840E+01  0.5611260E+01 -0.2310450E+00  0.2284733E+00  0.2240320E+01  0.1417935E+00 -0.1791498E+00
 -0.8907410E+01  0.4761110E+01 -0.2310450E+00  0.2354428E+00  0.2234946E+01  0.1451245E+00 -0.1853974E+00
 -0.9331180E+01  0.3865100E+01 -0.2310450E+00  0.2393305E+00  0.2232113E+01  0.1469863E+00 -0.1888759E+00
 -0.9665100E+01  0.2931880E+01 -0.2310450E+00  0.2400529E+00  0.2231913E+01  0.1473921E+00 -0.1894755E+00
 -0.9905930E+01  0.1970410E+01 -0.2310450E+00  0.2377078E+00  0.2233823E+01  0.1463104E+00 -0.1873453E+00
 -0.1005140E+02  0.9899730E+00 -0.2310450E+00  0.2330115E+00  0.2236505E+01  0.1439118E+00 -0.1832587E+00
 -0.1010000E+02 -0.8829700E-06 -0.2310450E+00  0.2254778E+00  0.2241971E+01  0.1402261E+00 -0.1765698E+00
 -0.1005140E+02 -0.9899740E+00 -0.2310450E+00  0.2149893E+00  0.2251517E+01  0.1353042E+00 -0.1670723E+00
 -0.9905930E+01 -0.1970410E+01 -0.2310450E+00  0.2016279E+00  0.2266092E+01  0.1291654E+00 -0.1548228E+00
 -0.9665100E+01 -0.2931880E+01 -0.2310450E+00  0.1863900E+00  0.2286019E+01  0.1222319E+00 -0.1407146E+00
 -0.9331180E+01 -0.3865100E+01 -0.2310450E+00  0.1693113E+00  0.2316082E+01  0.1148238E+00 -0.1244259E+00
 -0.8907400E+01 -0.4761110E+01 -0.2310450E+00  0.1504296E+00  0.2362215E+01  0.1070082E+00 -0.1057275E+00
 -0.8397840E+01 -0.5611260E+01 -0.2310450E+00  0.1300874E+00  0.2433856E+01  0.9884499E-01 -0.8457188E-01
 -0.7807400E+01 -0.6407370E+01 -0.2310450E+00  0.1099198E+00  0.2542992E+01  0.9080751E-01 -0.6193837E-01
 -0.7141780E+01 -0.7141780E+01 -0.2310450E+00  0.9154740E-01  0.2714153E+01  0.8331089E-01 -0.3795025E-01
 -0.6407370E+01 -0.7807410E+01 -0.2310450E+00  0.7740308E-01  0.2980640E+01  0.7640264E-01 -0.1240452E-01
 -0.5611260E+01 -0.8397850E+01 -0.2310450E+00  0.7169789E-01 -0.2933763E+01  0.7015502E-01  0.1479394E-01
 -0.4761110E+01 -0.8907410E+01 -0.2310450E+00  0.7764143E-01 -0.2559158E+01  0.6484038E-01  0.4270733E-01
 -0.3865100E+01 -0.9331190E+01 -0.2310450E+00  0.9322944E-01 -0.2280104E+01  0.6072116E-01  0.7074368E-01
 -0.2931870E+01 -0.9665100E+01 -0.2310450E+00  0.1146878E+00 -0.2098925E+01  0.5779320E-01  0.9906180E-01
 -0.1970410E+01 -0.9905930E+01 -0.2310450E+00  0.1395739E+00 -0.1984396E+01  0.5609585E-01  0.1278051E+00
 -0.9899710E+00 -0.1005140E+02 -0.2310450E+00  0.1658184E+00 -0.1912502E+01  0.5556487E-01  0.1562315E+00
  0.1204410E-06 -0.1010000E+02 -0.2310450E+00  0.1918648E+00 -0.1867797E+01  0.5615000E-01  0.1834647E+00
  0.9899760E+00 -0.1005140E+02 -0.2310450E+00  0.2174411E+00 -0.1839869E+01  0.5780411E-01  0.2096170E+00
  0.1970410E+01 -0.9905930E+01 -0.2310450E+00  0.2425437E+00 -0.1822933E+01  0.6050829E-01  0.2348749E+00
  0.2931880E+01 -0.9665100E+01 -0.2310450E+00  0.2666922E+00 -0.1812867E+01  0.6392978E-01  0.2589164E+00
  0.3865100E+01 -0.9331180E+01 -0.2310450E+00  0.2888173E+00 -0.1807588E+01  0.6775233E-01  0.2807580E+00
  0.4761110E+01 -0.8907410E+01 -0.2310450E+00  0.3089609E+00 -0.1805745E+01  0.7192401E-01  0.3004725E+00
  0.5611260E+01 -0.8397840E+01 -0.2310450E+00  0.3273227E+00 -0.1806331E+01  0.7638507E-01  0.3182852E+00
  0.6407370E+01 -0.7807410E+01 -0.2310450E+00  0.3439560E+00 -0.1807798E+01  0.8075713E-01  0.3343412E+00
  0.7141780E+01 -0.7141780E+01 -0.2310450E+00  0.3578735E+00 -0.1809644E+01  0.8466675E-01  0.3477140E+00
  0.7807410E+01 -0.6407370E+01 -0.2310450E+00  0.3690559E+00 -0.1811824E+01  0.8809382E-01  0.3583877E+00
  0.8397840E+01 -0.5611260E+01 -0.2310450E+00  0.3777041E+00 -0.1814041E+01  0.9097103E-01  0.3665852E+00
  0.8907410E+01 -0.4761110E+01 -0.2310450E+00  0.3842924E+00 -0.1815526E+01  0.9311169E-01  0.3728416E+00
  0.9331180E+01 -0.3865100E+01 -0.2310450E+00  0.3879612E+00 -0.1816328E+01  0.9430257E-01  0.3763256E+00
  0.9665100E+01 -0.2931870E+01 -0.2310450E+00  0.3886090E+00 -0.1816619E+01  0.9456984E-01  0.3769264E+00
  0.9905930E+01 -0.1970410E+01 -0.2310450E+00  0.3863708E+00 -0.1816209E+01  0.9387134E-01  0.3747941E+00
  0.1005140E+02 -0.9899690E+00 -0.2310450E+00  0.3820200E+00 -0.1814853E+01  0.9231176E-01  0.3706991E+00
  0.1010000E+02  0.0000000E+00 -0.4105000E+00  0.3726858E+00 -0.1813081E+01  0.8941516E-01  0.3618005E+00
  0.1005140E+02  0.9899730E+00 -0.4105000E+00  0.3627356E+00 -0.1811154E+01  0.8634916E-01  0.3523080E+00
  0.9905930E+01  0.1970410E+01 -0.4105000E+00  0.3500732E+00 -0.1808950E+01  0.8258519E-01  0.3401924E+00
  0.9665100E+01  0.2931880E+01 -0.4105000E+00  0.3353886E+00 -0.1806800E+01  0.7842027E-01  0.3260916E+00
  0.9331180E+01  0.3865100E+01 -0.4105000E+00  0.3186429E+00 -0.1805742E+01  0.7417699E-01  0.3098888E+00
  0.8907400E+01  0.4761110E+01 -0.4105000E+00  0.2995175E+00 -0.1806449E+01  0.6993074E-01  0.2912395E+00
  0.8397840E+01  0.5611260E+01 -0.4105000E+00  0.2781366E+00 -0.1809407E+01  0.6573829E-01  0.2702563E+00
  0.7807410E+01  0.6407370E+01 -0.4105000E+00  0.2553391E+00 -0.1815902E+01  0.6196028E-01  0.2477074E+00
  0.7141780E+01  0.7141780E+01 -0.4105000E+00  0.2314680E+00 -0.1828289E+01  0.5894485E-01  0.2238369E+00
  0.6407370E+01  0.7807410E+01 -0.4105000E+00  0.2063508E+00 -0.1849476E+01  0.5676442E-01  0.1983897E+00
  0.5611260E+01  0.8397840E+01 -0.4105000E+00  0.1801375E+00 -0.1883753E+01  0.5545950E-01  0.1713877E+00
  0.4761110E+01  0.8907410E+01 -0.4105000E+00  0.1538850E+00 -0.1937861E+01  0.5522582E-01  0.1436339E+00
  0.3865100E+01  0.9331180E+01 -0.4105000E+00  0.1286659E+00 -0.2022939E+01  0.5621332E-01  0.1157367E+00
  0.2931870E+01  0.9665100E+01 -0.4105000E+00  0.1052700E+00 -0.2159343E+01  0.5844093E-01  0.8755815E-01
  0.1970410E+01  0.9905930E+01 -0.4105000E+00  0.8551839E-01 -0.2380096E+01  0.6189858E-01  0.5900814E-01
  0.9899730E+00  0.1005140E+02 -0.4105000E+00  0.7326724E-01 -0.2707831E+01  0.6648206E-01  0.3079326E-01
 -0.4414850E-06  0.1010000E+02 -0.4105000E+00  0.7211663E-01 -0.3090280E+01  0.7202171E-01  0.3698847E-02
 -0.9899740E+00  0.1005140E+02 -0.4105000E+00  0.8157636E-01  0.2864764E+01  0.7847051E-01 -0.2229536E-01
 -0.1970410E+01  0.9905930E+01 -0.4105000E+00  0.9799217E-01  0.2636712E+01  0.8576588E-01 -0.4739914E-01
 -0.2931880E+01  0.9665100E+01 -0.4105000E+00  0.1175802E+00  0.2490953E+01  0.9355821E-01 -0.7121779E-01
 -0.3865100E+01  0.9331180E+01 -0.4105000E+00  0.1375827E+00  0.2399843E+01  0.1014380E+00 -0.9294794E-01
 -0.4761110E+01  0.8907400E+01 -0.4105000E+00  0.1568799E+00  0.2341776E+01  0.1093199E+00 -0.1125188E+00
 -0.5611260E+01  0.8397840E+01 -0.4105000E+00  0.1751669E+00  0.2303216E+01  0.1171291E+00 -0.1302468E+00
 -0.6407370E+01  0.7807410E+01 -0.4105000E+00  0.1919470E+00  0.2276414E+01  0.1244784E+00 -0.1461121E+00
 -0.7141780E+01  0.7141780E+01 -0.4105000E+00  0.2063067E+00  0.2258414E+01  0.1309424E+00 -0.1594256E+00