 VARIABLES="X" "Y" "Z" "abs(eta) (m)" "angle(phi) (rad)" "PRE1" "PRE2"
ZONE N=   3200 ,E =    3136 ,F=FEPOINT,ET=QUADRILATERAL
  0.1010000E+02  0.0000000E+00  0.0000000E+00  0.1922198E+00  0.2160442E+01  0.1068870E+00 -0.1597612E+00
  0.1005140E+02  0.9899730E+00  0.0000000E+00  0.1872082E+00  0.2165809E+01  0.1049338E+00 -0.1550349E+00
  0.9905930E+01  0.1970410E+01  0.0000000E+00  0.1803554E+00  0.2173111E+01  0.1021806E+00 -0.1486176E+00
  0.9665100E+01  0.2931880E+01  0.0000000E+00  0.1711847E+00  0.2184858E+01  0.9863525E-01 -0.1399117E+00
  0.9331180E+01  0.3865100E+01  0.0000000E+00  0.1605158E+00  0.2200890E+01  0.9457920E-01 -0.1296923E+00
  0.8907400E+01  0.4761110E+01  0.0000000E+00  0.1476497E+00  0.2226231E+01  0.8999303E-01 -0.1170542E+00
  0.8397840E+01  0.5611260E+01  0.0000000E+00  0.1334600E+00  0.2261602E+01  0.8503516E-01 -0.1028620E+00
  0.7807410E+01  0.6407370E+01  0.0000000E+00  0.1179649E+00  0.2314991E+01  0.7990697E-01 -0.8677898E-01
  0.7141780E+01  0.7141780E+01  0.0000000E+00  0.1021941E+00  0.2392893E+01  0.7486479E-01 -0.6956222E-01
  0.6407370E+01  0.7807410E+01  0.0000000E+00  0.8637010E-01  0.2515835E+01  0.7000464E-01 -0.5058798E-01
  0.5611260E+01  0.8397840E+01  0.0000000E+00  0.7213984E-01  0.2705545E+01  0.6538959E-01 -0.3046897E-01
  0.4761110E+01  0.8907410E+01  0.0000000E+00  0.6197912E-01  0.2992557E+01  0.6129206E-01 -0.9202946E-02
  0.3865100E+01  0.9331180E+01  0.0000000E+00  0.5915480E-01 -0.2927797E+01  0.5780801E-01  0.1255090E-01
  0.2931870E+01  0.9665100E+01  0.0000000E+00  0.6527555E-01 -0.2575137E+01  0.5508006E-01  0.3502977E-01
  0.1970410E+01  0.9905930E+01  0.0000000E+00  0.7858657E-01 -0.2311837E+01  0.5305032E-01  0.5797855E-01
  0.9899730E+00  0.1005140E+02  0.0000000E+00  0.9623103E-01 -0.2140473E+01  0.5190318E-01  0.8103377E-01
 -0.4414850E-06  0.1010000E+02  0.0000000E+00  0.1158665E+00 -0.2031582E+01  0.5152022E-01  0.1037820E+00
 -0.9899740E+00  0.1005140E+02  0.0000000E+00  0.1363498E+00 -0.1962095E+01  0.5200229E-01  0.1260437E+00
 -0.1970410E+01  0.9905930E+01  0.0000000E+00  0.1572470E+00 -0.1916013E+01  0.5321242E-01  0.1479698E+00
 -0.2931880E+01  0.9665100E+01  0.0000000E+00  0.1777171E+00 -0.1886276E+01  0.5514067E-01  0.1689464E+00
 -0.3865100E+01  0.9331180E+01  0.0000000E+00  0.1974568E+00 -0.1866463E+01  0.5753440E-01  0.1888888E+00
 -0.4761110E+01  0.8907400E+01  0.0000000E+00  0.2158767E+00 -0.1854338E+01  0.6039321E-01  0.2072569E+00
 -0.5611260E+01  0.8397840E+01  0.0000000E+00  0.2334305E+00 -0.1846701E+01  0.6359060E-01  0.2246020E+00
 -0.6407370E+01  0.7807410E+01  0.0000000E+00  0.2493255E+00 -0.1842608E+01  0.6693817E-01  0.2401718E+00
 -0.7141780E+01  0.7141780E+01  0.0000000E+00  0.2637649E+00 -0.1840221E+01  0.7020809E-01  0.2542493E+00
 -0.7807410E+01  0.6407370E+01  0.0000000E+00  0.2759226E+00 -0.1839694E+01  0.7330402E-01  0.2660071E+00
 -0.8397840E+01  0.5611260E+01  0.0000000E+00  0.2866173E+00 -0.1839844E+01  0.7618677E-01  0.2763061E+00
 -0.8907410E+01  0.4761110E+01  0.0000000E+00  0.2950376E+00 -0.1840509E+01  0.7861399E-01  0.2843713E+00
 -0.9331180E+01  0.3865100E+01  0.0000000E+00  0.3016944E+00 -0.1840940E+01  0.8051308E-01  0.2907527E+00
 -0.9665100E+01  0.2931880E+01  0.0000000E+00  0.3055959E+00 -0.1841615E+01  0.8175320E-01  0.2944576E+00
 -0.9905930E+01  0.1970410E+01  0.0000000E+00  0.3077403E+00 -0.1841870E+01  0.8240254E-01  0.2965028E+00
 -0.1005140E+02  0.9899730E+00  0.0000000E+00  0.3073849E+00 -0.1841875E+01  0.8230879E-01  0.2961600E+00
 -0.1010000E+02 -0.8829700E-06  0.0000000E+00  0.3052486E+00 -0.1841385E+01  0.8159263E-01  0.2941417E+00
 -0.1005140E+02 -0.9899740E+00  0.0000000E+00  0.3003113E+00 -0.1841019E+01  0.8016699E-01  0.2894134E+00
 -0.9905930E+01 -0.1970410E+01  0.0000000E+00  0.2935887E+00 -0.1840276E+01  0.7816199E-01  0.2829930E+00
 -0.9665100E+01 -0.2931880E+01  0.0000000E+00  0.2845129E+00 -0.1839774E+01  0.7560830E-01  0.2742827E+00
 -0.9331180E+01 -0.3865100E+01  0.0000000E+00  0.2738948E+00 -0.1839610E+01  0.7274306E-01  0.2640583E+00
 -0.8907400E+01 -0.4761110E+01  0.0000000E+00  0.2608671E+00 -0.1840801E+01  0.6958267E-01  0.2514158E+00
 -0.8397840E+01 -0.5611260E+01  0.0000000E+00  0.2462915E+00 -0.1843080E+01  0.6623568E-01  0.2372179E+00
 -0.7807400E+01 -0.6407370E+01  0.0000000E+00  0.2299041E+00 -0.1847962E+01  0.6290878E-01  0.2211298E+00
 -0.7141780E+01 -0.7141780E+01  0.0000000E+00  0.2124984E+00 -0.1856119E+01  0.5981135E-01  0.2039073E+00
 -0.6407370E+01 -0.7807410E+01  0.0000000E+00  0.1935305E+00 -0.1870071E+01  0.5705801E-01  0.1849282E+00
 -0.5611260E+01 -0.8397850E+01  0.0000000E+00  0.1736362E+00 -0.1891106E+01  0.5467114E-01  0.1648047E+00
 -0.4761110E+01 -0.8907410E+01  0.0000000E+00  0.1529766E+00 -0.1923967E+01  0.5291075E-01  0.1435350E+00
 -0.3865100E+01 -0.9331190E+01  0.0000000E+00  0.1323484E+00 -0.1973179E+01  0.5182924E-01  0.1217778E+00
 -0.2931870E+01 -0.9665100E+01  0.0000000E+00  0.1118897E+00 -0.2049789E+01  0.5156834E-01  0.9929764E-01
 -0.1970410E+01 -0.9905930E+01  0.0000000E+00  0.9239969E-01 -0.2169125E+01  0.5204529E-01  0.7634782E-01
 -0.9899710E+00 -0.1005140E+02  0.0000000E+00  0.7545362E-01 -0.2357337E+01  0.5341467E-01  0.5329278E-01
  0.1204410E-06 -0.1010000E+02  0.0000000E+00  0.6337354E-01 -0.2638669E+01  0.5552646E-01  0.3054535E-01
  0.9899760E+00 -0.1005140E+02  0.0000000E+00  0.5904438E-01 -0.3000788E+01  0.5846004E-01  0.8286249E-02
  0.1970410E+01 -0.9905930E+01  0.0000000E+00  0.6355342E-01  0.2925349E+01  0.6207328E-01 -0.1363618E-01
  0.2931880E+01 -0.9665100E+01  0.0000000E+00  0.7480271E-01  0.2660587E+01  0.6631485E-01 -0.3460904E-01
  0.3865100E+01 -0.9331180E+01  0.0000000E+00  0.8946734E-01  0.2485926E+01  0.7091556E-01 -0.5454712E-01
  0.4761110E+01 -0.8907410E+01  0.0000000E+00  0.1052003E+00  0.2375874E+01  0.7583728E-01 -0.7290964E-01
  0.5611260E+01 -0.8397840E+01  0.0000000E+00  0.1212471E+00  0.2302042E+01  0.8096857E-01 -0.9024944E-01
  0.6407370E+01 -0.7807410E+01  0.0000000E+00  0.1364011E+00  0.2253681E+01  0.8607364E-01 -0.1058139E+00
  0.7141780E+01 -0.7141780E+01  0.0000000E+00  0.1504675E+00  0.2219679E+01  0.9092698E-01 -0.1198865E+00
  0.7807410E+01 -0.6407370E+01  0.0000000E+00  0.1625628E+00  0.2197831E+01  0.9538309E-01 -0.1316386E+00
  0.8397840E+01 -0.5611260E+01  0.0000000E+00  0.1732987E+00  0.2181915E+01  0.9943601E-01 -0.1419328E+00
  0.8907410E+01 -0.4761110E+01  0.0000000E+00  0.1818400E+00  0.2171616E+01  0.1027976E+00 -0.1499948E+00
  0.9331180E+01 -0.3865100E+01  0.0000000E+00  0.1885865E+00  0.2163945E+01  0.1054151E+00 -0.1563731E+00
  0.9665100E+01 -0.2931870E+01  0.0000000E+00  0.1926036E+00  0.2160477E+01  0.1071059E+00 -0.1600764E+00
  0.9905930E+01 -0.1970410E+01  0.0000000E+00  0.1947914E+00  0.2158385E+01  0.1079836E+00 -0.1621210E+00
  0.1005140E+02 -0.9899690E+00  0.0000000E+00  0.1944369E+00  0.2158828E+01  0.1078588E+00 -0.1617782E+00
  0.1010000E+02  0.0000000E+00 -0.2568960E-01  0.1921304E+00  0.2160334E+01  0.1068200E+00 -0.1596984E+00
  0.1005140E+02  0.9899730E+00 -0.2568960E-01  0.1871056E+00  0.2165735E+01  0.1048648E+00 -0.1549577E+00
  0.9905930E+01  0.1970410E+01 -0.2568960E-01  0.1801327E+00  0.2173361E+01  0.1020915E+00 -0.1484086E+00
  0.9665100E+01  0.2931880E+01 -0.2568960E-01  0.1710902E+00  0.2184775E+01  0.9856919E-01 -0.1398426E+00
  0.9331180E+01  0.3865100E+01 -0.2568960E-01  0.1604405E+00  0.2200754E+01  0.9451725E-01 -0.1296443E+00
  0.8907400E+01  0.4761110E+01 -0.2568960E-01  0.1475695E+00  0.2226130E+01  0.8993236E-01 -0.1169996E+00
  0.8397840E+01  0.5611260E+01 -0.2568960E-01  0.1332999E+00  0.2261982E+01  0.8497218E-01 -0.1027064E+00
  0.7807410E+01  0.6407370E+01 -0.2568960E-01  0.1178981E+00  0.2314867E+01  0.7985103E-01 -0.8673970E-01
  0.7141780E+01  0.7141780E+01 -0.2568960E-01  0.1021426E+00  0.2392665E+01  0.7481129E-01 -0.6954417E-01
  0.6407370E+01  0.7807410E+01 -0.2568960E-01  0.8631984E-01  0.2515655E+01  0.6995482E-01 -0.5057112E-01
  0.5611260E+01  0.8397840E+01 -0.2568960E-01  0.7207994E-01  0.2706216E+01  0.6535569E-01 -0.3039987E-01
  0.4761110E+01  0.8907410E+01 -0.2568960E-01  0.6193478E-01  0.2992380E+01  0.6124659E-01 -0.9207189E-02
  0.3865100E+01  0.9331180E+01 -0.2568960E-01  0.5910533E-01 -0.2927993E+01  0.5776211E-01  0.1252910E-01
  0.2931870E+01  0.9665100E+01 -0.2568960E-01  0.6522355E-01 -0.2575201E+01  0.5503841E-01  0.3499836E-01
  0.1970410E+01  0.9905930E+01 -0.2568960E-01  0.7854766E-01 -0.2311994E+01  0.5303315E-01  0.5794151E-01
  0.9899730E+00  0.1005140E+02 -0.2568960E-01  0.9616356E-01 -0.2140432E+01  0.5186341E-01  0.8097911E-01
 -0.4414850E-06  0.1010000E+02 -0.2568960E-01  0.1157888E+00 -0.2031506E+01  0.5147789E-01  0.1037164E+00
 -0.9899740E+00  0.1005140E+02 -0.2568960E-01  0.1362589E+00 -0.1962055E+01  0.5196260E-01  0.1259618E+00
 -0.1970410E+01  0.9905930E+01 -0.2568960E-01  0.1571030E+00 -0.1916201E+01  0.5319147E-01  0.1478243E+00
 -0.2931880E+01  0.9665100E+01 -0.2568960E-01  0.1776053E+00 -0.1886241E+01  0.5510005E-01  0.1688420E+00
 -0.3865100E+01  0.9331180E+01 -0.2568960E-01  0.1973417E+00 -0.1866410E+01  0.5749100E-01  0.1887817E+00
 -0.4761110E+01  0.8907400E+01 -0.2568960E-01  0.2157418E+00 -0.1854310E+01  0.6034959E-01  0.2071291E+00
 -0.5611260E+01  0.8397840E+01 -0.2568960E-01  0.2331917E+00 -0.1846809E+01  0.6354968E-01  0.2243653E+00
 -0.6407370E+01  0.7807410E+01 -0.2568960E-01  0.2491737E+00 -0.1842585E+01  0.6689196E-01  0.2400271E+00
 -0.7141780E+01  0.7141780E+01 -0.2568960E-01  0.2636179E+00 -0.1840188E+01  0.7016064E-01  0.2541099E+00
 -0.7807410E+01  0.6407370E+01 -0.2568960E-01  0.2757543E+00 -0.1839675E+01  0.7325418E-01  0.2658463E+00
 -0.8397840E+01  0.5611260E+01 -0.2568960E-01  0.2863131E+00 -0.1839907E+01  0.7612335E-01  0.2760080E+00
 -0.8907410E+01  0.4761110E+01 -0.2568960E-01  0.2948601E+00 -0.1840492E+01  0.7856193E-01  0.2842015E+00
 -0.9331180E+01  0.3865100E+01 -0.2568960E-01  0.3015280E+00 -0.1840917E+01  0.8046201E-01  0.2905942E+00
 -0.9665100E+01  0.2931880E+01 -0.2568960E-01  0.3054110E+00 -0.1841600E+01  0.8169930E-01  0.2942806E+00
 -0.9905930E+01  0.1970410E+01 -0.2568960E-01  0.3074112E+00 -0.1841917E+01  0.8232827E-01  0.2961819E+00
 -0.1005140E+02  0.9899730E+00 -0.2568960E-01  0.3071993E+00 -0.1841860E+01  0.8225456E-01  0.2959824E+00
 -0.1010000E+02 -0.8829700E-06 -0.2568960E-01  0.3050813E+00 -0.1841362E+01  0.8154110E-01  0.2939824E+00
 -0.1005140E+02 -0.9899740E+00 -0.2568960E-01  0.3001301E+00 -0.1841004E+01  0.8011415E-01  0.2892400E+00
 -0.9905930E+01 -0.1970410E+01 -0.2568960E-01  0.2932768E+00 -0.1840332E+01  0.7809494E-01  0.2826879E+00
 -0.9665100E+01 -0.2931880E+01 -0.2568960E-01  0.2843398E+00 -0.1839756E+01  0.7555737E-01  0.2741171E+00
 -0.9331180E+01 -0.3865100E+01 -0.2568960E-01  0.2737430E+00 -0.1839579E+01  0.7269470E-01  0.2639143E+00
 -0.8907400E+01 -0.4761110E+01 -0.2568960E-01  0.2607089E+00 -0.1840780E+01  0.6953519E-01  0.2512648E+00
 -0.8397840E+01 -0.5611260E+01 -0.2568960E-01  0.2460371E+00 -0.1843176E+01  0.6618998E-01  0.2369665E+00
 -0.7807400E+01 -0.6407370E+01 -0.2568960E-01  0.2297614E+00 -0.1847936E+01  0.6286396E-01  0.2209942E+00
 -0.7141780E+01 -0.7141780E+01 -0.2568960E-01  0.2123761E+00 -0.1856071E+01  0.5976717E-01  0.2037928E+00
 -0.6407370E+01 -0.7807410E+01 -0.2568960E-01  0.1934101E+00 -0.1870039E+01  0.5701653E-01  0.1848149E+00
 -0.5611260E+01 -0.8397850E+01 -0.2568960E-01  0.1734716E+00 -0.1891274E+01  0.5464711E-01  0.1646393E+00
 -0.4761110E+01 -0.8907410E+01 -0.2568960E-01  0.1528762E+00 -0.1923930E+01  0.5287068E-01  0.1434428E+00
 -0.3865100E+01 -0.9331190E+01 -0.2568960E-01  0.1322634E+00 -0.1973106E+01  0.5178706E-01  0.1217033E+00
 -0.2931870E+01 -0.9665100E+01 -0.2568960E-01  0.1118138E+00 -0.2049743E+01  0.5152884E-01  0.9923261E-01
 -0.1970410E+01 -0.9905930E+01 -0.2568960E-01  0.9234172E-01 -0.2169340E+01  0.5202900E-01  0.7628877E-01
 -0.9899710E+00 -0.1005140E+02 -0.2568960E-01  0.7539538E-01 -0.2357347E+01  0.5337397E-01  0.5325114E-01
  0.1204410E-06 -0.1010000E+02 -0.2568960E-01  0.6331953E-01 -0.2638750E+01  0.5548161E-01  0.3051483E-01
  0.9899760E+00 -0.1005140E+02 -0.2568960E-01  0.5899901E-01 -0.3000920E+01  0.5841621E-01  0.8272188E-02
  0.1970410E+01 -0.9905930E+01 -0.2568960E-01  0.6351450E-01  0.2926006E+01  0.6204420E-01 -0.1358709E-01
  0.2931880E+01 -0.9665100E+01 -0.2568960E-01  0.7475667E-01  0.2660385E+01  0.6626706E-01 -0.3460110E-01
  0.3865100E+01 -0.9331180E+01 -0.2568960E-01  0.8941982E-01  0.2485668E+01  0.7086383E-01 -0.5453643E-01
  0.4761110E+01 -0.8907410E+01 -0.2568960E-01  0.1051398E+00  0.2375735E+01  0.7578352E-01 -0.7287824E-01
  0.5611260E+01 -0.8397840E+01 -0.2568960E-01  0.1211047E+00  0.2302466E+01  0.8091162E-01 -0.9010912E-01
  0.6407370E+01 -0.7807410E+01 -0.2568960E-01  0.1363266E+00  0.2253573E+01  0.8601518E-01 -0.1057655E+00
  0.7141780E+01 -0.7141780E+01 -0.2568960E-01  0.1503969E+00  0.2219531E+01  0.9086660E-01 -0.1198436E+00
  0.7807410E+01 -0.6407370E+01 -0.2568960E-01  0.1624730E+00  0.2197743E+01  0.9531887E-01 -0.1315742E+00
  0.8397840E+01 -0.5611260E+01 -0.2568960E-01  0.1730853E+00  0.2182180E+01  0.9935114E-01 -0.1417317E+00
  0.8907410E+01 -0.4761110E+01 -0.2568960E-01  0.1817406E+00  0.2171539E+01  0.1027298E+00 -0.1499207E+00
  0.9331180E+01 -0.3865100E+01 -0.2568960E-01  0.1884988E+00  0.2163835E+01  0.1053488E+00 -0.1563120E+00
  0.9665100E+01 -0.2931870E+01 -0.2568960E-01  0.1924976E+00  0.2160404E+01  0.1070354E+00 -0.1599961E+00
  0.9905930E+01 -0.1970410E+01 -0.2568960E-01  0.1945501E+00  0.2158605E+01  0.1078856E+00 -0.1618963E+00
  0.1005140E+02 -0.9899690E+00 -0.2568960E-01  0.1943300E+00  0.2158757E+01  0.1077881E+00 -0.1616969E+00
  0.1010000E+02  0.0000000E+00 -0.1027320E+00  0.1918133E+00  0.2160177E+01  0.1066187E+00 -0.1594515E+00
  0.1005140E+02  0.9899730E+00 -0.1027320E+00  0.1867482E+00  0.2165684E+01  0.1046567E+00 -0.1546670E+00
  0.9905930E+01  0.1970410E+01 -0.1027320E+00  0.1797157E+00  0.2173498E+01  0.1018755E+00 -0.1480511E+00
  0.9665100E+01  0.2931880E+01 -0.1027320E+00  0.1707609E+00  0.2184712E+01  0.9837070E-01 -0.1395797E+00
  0.9331180E+01  0.3865100E+01 -0.1027320E+00  0.1601747E+00  0.2200535E+01  0.9433229E-01 -0.1294502E+00
  0.8907400E+01  0.4761110E+01 -0.1027320E+00  0.1472886E+00  0.2226038E+01  0.8975045E-01 -0.1167853E+00
  0.8397840E+01  0.5611260E+01 -0.1027320E+00  0.1329937E+00  0.2262159E+01  0.8479510E-01 -0.1024555E+00
  0.7807410E+01  0.6407370E+01 -0.1027320E+00  0.1176684E+00  0.2314744E+01  0.7968476E-01 -0.8658057E-01
  0.7141780E+01  0.7141780E+01 -0.1027320E+00  0.1019654E+00  0.2392250E+01  0.7465260E-01 -0.6945449E-01
  0.6407370E+01  0.7807410E+01 -0.1027320E+00  0.8615181E-01  0.2515434E+01  0.6980747E-01 -0.5048813E-01
  0.5611260E+01  0.8397840E+01 -0.1027320E+00  0.7192507E-01  0.2706482E+01  0.6522334E-01 -0.3031717E-01
  0.4761110E+01  0.8907410E+01 -0.1027320E+00  0.6180165E-01  0.2992187E+01  0.6111316E-01 -0.9199218E-02
  0.3865100E+01  0.9331180E+01 -0.1027320E+00  0.5896279E-01 -0.2928358E+01  0.5762738E-01  0.1247783E-01
  0.2931870E+01  0.9665100E+01 -0.1027320E+00  0.6507562E-01 -0.2575306E+01  0.5491726E-01  0.3491319E-01
  0.1970410E+01  0.9905930E+01 -0.1027320E+00  0.7838646E-01 -0.2312071E+01  0.5292879E-01  0.5781850E-01
  0.9899730E+00  0.1005140E+02 -0.1027320E+00  0.9595998E-01 -0.2140365E+01  0.5174819E-01  0.8081114E-01
 -0.4414850E-06  0.1010000E+02 -0.1027320E+00  0.1155486E+00 -0.2031346E+01  0.5135454E-01  0.1035094E+00
 -0.9899740E+00  0.1005140E+02 -0.1027320E+00  0.1359721E+00 -0.1962013E+01  0.5184791E-01  0.1256988E+00
 -0.1970410E+01  0.9905930E+01 -0.1027320E+00  0.1567548E+00 -0.1916287E+01  0.5308639E-01  0.1474920E+00
 -0.2931880E+01  0.9665100E+01 -0.1027320E+00  0.1772455E+00 -0.1886203E+01  0.5498215E-01  0.1685020E+00
 -0.3865100E+01  0.9331180E+01 -0.1027320E+00  0.1969674E+00 -0.1866314E+01  0.5736389E-01  0.1884291E+00
 -0.4761110E+01  0.8907400E+01 -0.1027320E+00  0.2153024E+00 -0.1854289E+01  0.6022232E-01  0.2067085E+00
 -0.5611260E+01  0.8397840E+01 -0.1027320E+00  0.2326652E+00 -0.1846873E+01  0.6342056E-01  0.2238547E+00
 -0.6407370E+01  0.7807410E+01 -0.1027320E+00  0.2486740E+00 -0.1842579E+01  0.6675629E-01  0.2395462E+00
 -0.7141780E+01  0.7141780E+01 -0.1027320E+00  0.2631314E+00 -0.1840148E+01  0.7002101E-01  0.2536438E+00
 -0.7807410E+01  0.6407370E+01 -0.1027320E+00  0.2751988E+00 -0.1839676E+01  0.7310693E-01  0.2653107E+00
 -0.8397840E+01  0.5611260E+01 -0.1027320E+00  0.2856627E+00 -0.1839961E+01  0.7596525E-01  0.2753769E+00
 -0.8907410E+01  0.4761110E+01 -0.1027320E+00  0.2942699E+00 -0.1840502E+01  0.7840763E-01  0.2836319E+00
 -0.9331180E+01  0.3865100E+01 -0.1027320E+00  0.3009773E+00 -0.1840905E+01  0.8031159E-01  0.2900645E+00
 -0.9665100E+01  0.2931880E+01 -0.1027320E+00  0.3047988E+00 -0.1841613E+01  0.8153917E-01  0.2936897E+00
 -0.9905930E+01  0.1970410E+01 -0.1027320E+00  0.3067122E+00 -0.1841967E+01  0.8215583E-01  0.2955043E+00
 -0.1005140E+02  0.9899730E+00 -0.1027320E+00  0.3065841E+00 -0.1841873E+01  0.8209378E-01  0.2953886E+00
 -0.1010000E+02 -0.8829700E-06 -0.1027320E+00  0.3045247E+00 -0.1841352E+01  0.8138952E-01  0.2934468E+00
 -0.1005140E+02 -0.9899740E+00 -0.1027320E+00  0.2995294E+00 -0.1841015E+01  0.7995714E-01  0.2886602E+00
 -0.9905930E+01 -0.1970410E+01 -0.1027320E+00  0.2926102E+00 -0.1840385E+01  0.7793240E-01  0.2820413E+00
 -0.9665100E+01 -0.2931880E+01 -0.1027320E+00  0.2837682E+00 -0.1839760E+01  0.7540648E-01  0.2735658E+00
 -0.9331180E+01 -0.3865100E+01 -0.1027320E+00  0.2732395E+00 -0.1839547E+01  0.7255249E-01  0.2634312E+00
 -0.8907400E+01 -0.4761110E+01 -0.1027320E+00  0.2601866E+00 -0.1840778E+01  0.6939535E-01  0.2507616E+00
 -0.8397840E+01 -0.5611260E+01 -0.1027320E+00  0.2454803E+00 -0.1843238E+01  0.6605478E-01  0.2364262E+00
 -0.7807400E+01 -0.6407370E+01 -0.1027320E+00  0.2292950E+00 -0.1847920E+01  0.6273282E-01  0.2205465E+00
 -0.7141780E+01 -0.7141780E+01 -0.1027320E+00  0.2119762E+00 -0.1855989E+01  0.5963797E-01  0.2034140E+00
 -0.6407370E+01 -0.7807410E+01 -0.1027320E+00  0.1930195E+00 -0.1870008E+01  0.5689583E-01  0.1844434E+00
 -0.5611260E+01 -0.8397850E+01 -0.1027320E+00  0.1730848E+00 -0.1891356E+01  0.5453857E-01  0.1642678E+00
 -0.4761110E+01 -0.8907410E+01 -0.1027320E+00  0.1525579E+00 -0.1923889E+01  0.5275473E-01  0.1431463E+00
 -0.3865100E+01 -0.9331190E+01 -0.1027320E+00  0.1319966E+00 -0.1972953E+01  0.5166405E-01  0.1214658E+00
 -0.2931870E+01 -0.9665100E+01 -0.1027320E+00  0.1115805E+00 -0.2049678E+01  0.5141478E-01  0.9902892E-01
 -0.1970410E+01 -0.9905930E+01 -0.1027320E+00  0.9214719E-01 -0.2169437E+01  0.5192681E-01  0.7612299E-01
 -0.9899710E+00 -0.1005140E+02 -0.1027320E+00  0.7522655E-01 -0.2357372E+01  0.5325581E-01  0.5313052E-01
  0.1204410E-06 -0.1010000E+02 -0.1027320E+00  0.6316504E-01 -0.2638886E+01  0.5535036E-01  0.3043288E-01
  0.9899760E+00 -0.1005140E+02 -0.1027320E+00  0.5886835E-01 -0.3001054E+01  0.5828794E-01  0.8246080E-02
  0.1970410E+01 -0.9905930E+01 -0.1027320E+00  0.6338328E-01  0.2926253E+01  0.6191937E-01 -0.1354370E-01
  0.2931880E+01 -0.9665100E+01 -0.1027320E+00  0.7460809E-01  0.2660121E+01  0.6612621E-01 -0.3454982E-01
  0.3865100E+01 -0.9331180E+01 -0.1027320E+00  0.8925945E-01  0.2485187E+01  0.7071053E-01 -0.5447265E-01
  0.4761110E+01 -0.8907410E+01 -0.1027320E+00  0.1049334E+00  0.2375591E+01  0.7562429E-01 -0.7274606E-01
  0.5611260E+01 -0.8397840E+01 -0.1027320E+00  0.1208277E+00  0.2302659E+01  0.8074384E-01 -0.8988746E-01
  0.6407370E+01 -0.7807410E+01 -0.1027320E+00  0.1360670E+00  0.2253464E+01  0.8583992E-01 -0.1055733E+00
  0.7141780E+01 -0.7141780E+01 -0.1027320E+00  0.1501469E+00  0.2219287E+01  0.9068634E-01 -0.1196665E+00
  0.7807410E+01 -0.6407370E+01 -0.1027320E+00  0.1621600E+00  0.2197673E+01  0.9512591E-01 -0.1313275E+00
  0.8397840E+01 -0.5611260E+01 -0.1027320E+00  0.1726848E+00  0.2182322E+01  0.9914137E-01 -0.1413896E+00
  0.8907410E+01 -0.4761110E+01 -0.1027320E+00  0.1813939E+00  0.2171484E+01  0.1025256E+00 -0.1496403E+00
  0.9331180E+01 -0.3865100E+01 -0.1027320E+00  0.1881874E+00  0.2163671E+01  0.1051493E+00 -0.1560709E+00
  0.9665100E+01 -0.2931870E+01 -0.1027320E+00  0.1921286E+00  0.2160359E+01  0.1068231E+00 -0.1596942E+00
  0.9905930E+01 -0.1970410E+01 -0.1027320E+00  0.1940994E+00  0.2158735E+01  0.1076566E+00 -0.1615074E+00
  0.1005140E+02 -0.9899690E+00 -0.1027320E+00  0.1939577E+00  0.2158713E+01  0.1075745E+00 -0.1613918E+00
  0.1010000E+02  0.0000000E+00 -0.2310450E+00  0.1912193E+00  0.2160060E+01  0.1062699E+00 -0.1589702E+00
  0.1005140E+02  0.9899730E+00 -0.2310450E+00  0.1861439E+00  0.2165622E+01  0.1043084E+00 -0.1541729E+00
  0.9905930E+01  0.1970410E+01 -0.2310450E+00  0.1791549E+00  0.2173375E+01  0.1015395E+00 -0.1476015E+00
  0.9665100E+01  0.2931880E+01 -0.2310450E+00  0.1702058E+00  0.2184639E+01  0.9804070E-01 -0.1391332E+00
  0.9331180E+01  0.3865100E+01 -0.2310450E+00  0.1596791E+00  0.2200368E+01  0.9401886E-01 -0.1290654E+00
  0.8907400E+01  0.4761110E+01 -0.2310450E+00  0.1468142E+00  0.2225933E+01  0.8944911E-01 -0.1164184E+00
  0.8397840E+01  0.5611260E+01 -0.2310450E+00  0.1325783E+00  0.2261953E+01  0.8450923E-01 -0.1021529E+00
  0.7807410E+01  0.6407370E+01 -0.2310450E+00  0.1172842E+00  0.2314606E+01  0.7941270E-01 -0.8630878E-01
  0.7141780E+01  0.7141780E+01 -0.2310450E+00  0.1016459E+00  0.2391925E+01  0.7439619E-01 -0.6926104E-01
  0.6407370E+01  0.7807410E+01 -0.2310450E+00  0.8587308E-01  0.2515177E+01  0.6956871E-01 -0.5034263E-01
  0.5611260E+01  0.8397840E+01 -0.2310450E+00  0.7168841E-01  0.2706043E+01  0.6499547E-01 -0.3024594E-01
  0.4761110E+01  0.8907410E+01 -0.2310450E+00  0.6158856E-01  0.2991931E+01  0.6090010E-01 -0.9183045E-02
  0.3865100E+01  0.9331180E+01 -0.2310450E+00  0.5874724E-01 -0.2928730E+01  0.5742132E-01  0.1241085E-01
  0.2931870E+01  0.9665100E+01 -0.2310450E+00  0.6483969E-01 -0.2575512E+01  0.5472530E-01  0.3477538E-01
  0.1970410E+01  0.9905930E+01 -0.2310450E+00  0.7810275E-01 -0.2312096E+01  0.5273864E-01  0.5760793E-01
  0.9899730E+00  0.1005140E+02 -0.2310450E+00  0.9562509E-01 -0.2140353E+01  0.5156663E-01  0.8052974E-01
 -0.4414850E-06  0.1010000E+02 -0.2310450E+00  0.1151478E+00 -0.2031275E+01  0.5116901E-01  0.1031540E+00
 -0.9899740E+00  0.1005140E+02 -0.2310450E+00  0.1354980E+00 -0.1962007E+01  0.5166649E-01  0.1252608E+00
 -0.1970410E+01  0.9905930E+01 -0.2310450E+00  0.1562233E+00 -0.1916235E+01  0.5289861E-01  0.1469947E+00
 -0.2931880E+01  0.9665100E+01 -0.2310450E+00  0.1766429E+00 -0.1886192E+01  0.5479328E-01  0.1679298E+00
 -0.3865100E+01  0.9331180E+01 -0.2310450E+00  0.1963112E+00 -0.1866270E+01  0.5716442E-01  0.1878039E+00
 -0.4761110E+01  0.8907400E+01 -0.2310450E+00  0.2145672E+00 -0.1854288E+01  0.6001659E-01  0.2060027E+00
 -0.5611260E+01  0.8397840E+01 -0.2310450E+00  0.2318933E+00 -0.1846853E+01  0.6320569E-01  0.2231133E+00
 -0.6407370E+01  0.7807410E+01 -0.2310450E+00  0.2478352E+00 -0.1842587E+01  0.6653314E-01  0.2387376E+00
 -0.7141780E+01  0.7141780E+01 -0.2310450E+00  0.2622670E+00 -0.1840138E+01  0.6978846E-01  0.2528113E+00
 -0.7807410E+01  0.6407370E+01 -0.2310450E+00  0.2742676E+00 -0.1839689E+01  0.7286306E-01  0.2644119E+00
 -0.8397840E+01  0.5611260E+01 -0.2310450E+00  0.2847217E+00 -0.1839966E+01  0.7571632E-01  0.2744695E+00
 -0.8907410E+01  0.4761110E+01 -0.2310450E+00  0.2932786E+00 -0.1840523E+01  0.7814938E-01  0.2826747E+00
 -0.9331180E+01  0.3865100E+01 -0.2310450E+00  0.2999924E+00 -0.1840914E+01  0.8005140E-01  0.2891145E+00
 -0.9665100E+01  0.2931880E+01 -0.2310450E+00  0.3037713E+00 -0.1841635E+01  0.8127079E-01  0.2926979E+00
 -0.9905930E+01  0.1970410E+01 -0.2310450E+00  0.3057043E+00 -0.1841981E+01  0.8188986E-01  0.2945322E+00
 -0.1005140E+02  0.9899730E+00 -0.2310450E+00  0.3055506E+00 -0.1841897E+01  0.8182388E-01  0.2943909E+00
 -0.1010000E+02 -0.8829700E-06 -0.2310450E+00  0.3035283E+00 -0.1841364E+01  0.8112654E-01  0.2924858E+00
 -0.1005140E+02 -0.9899740E+00 -0.2310450E+00  0.2985207E+00 -0.1841038E+01  0.7969426E-01  0.2876863E+00
 -0.9905930E+01 -0.1970410E+01 -0.2310450E+00  0.2916464E+00 -0.1840394E+01  0.7767805E-01  0.2811117E+00
 -0.9665100E+01 -0.2931880E+01 -0.2310450E+00  0.2828088E+00 -0.1839776E+01  0.7515588E-01  0.2726398E+00
 -0.9331180E+01 -0.3865100E+01 -0.2310450E+00  0.2723427E+00 -0.1839542E+01  0.7231314E-01  0.2625668E+00
 -0.8907400E+01 -0.4761110E+01 -0.2310450E+00  0.2593090E+00 -0.1840790E+01  0.6916434E-01  0.2499149E+00
 -0.8397840E+01 -0.5611260E+01 -0.2310450E+00  0.2446678E+00 -0.1843224E+01  0.6583278E-01  0.2356446E+00
 -0.7807400E+01 -0.6407370E+01 -0.2310450E+00  0.2285137E+00 -0.1847922E+01  0.6251966E-01  0.2197949E+00
 -0.7141780E+01 -0.7141780E+01 -0.2310450E+00  0.2112730E+00 -0.1855952E+01  0.5943262E-01  0.2027413E+00
 -0.6407370E+01 -0.7807410E+01 -0.2310450E+00  0.1923648E+00 -0.1870001E+01  0.5670153E-01  0.1838183E+00
 -0.5611260E+01 -0.8397850E+01 -0.2310450E+00  0.1725019E+00 -0.1891308E+01  0.5434718E-01  0.1637171E+00
 -0.4761110E+01 -0.8907410E+01 -0.2310450E+00  0.1520292E+00 -0.1923881E+01  0.5257081E-01  0.1426505E+00
 -0.3865100E+01 -0.9331190E+01 -0.2310450E+00  0.1315442E+00 -0.1972882E+01  0.5147832E-01  0.1210531E+00
 -0.2931870E+01 -0.9665100E+01 -0.2310450E+00  0.1111945E+00 -0.2049656E+01  0.5123481E-01  0.9868740E-01
 -0.1970410E+01 -0.9905930E+01 -0.2310450E+00  0.9181974E-01 -0.2169409E+01  0.5174011E-01  0.7585398E-01
 -0.9899710E+00 -0.1005140E+02 -0.2310450E+00  0.7495444E-01 -0.2357487E+01  0.5306924E-01  0.5293225E-01
  0.1204410E-06 -0.1010000E+02 -0.2310450E+00  0.6293091E-01 -0.2639088E+01  0.5515133E-01  0.3030891E-01
  0.9899760E+00 -0.1005140E+02 -0.2310450E+00  0.5866072E-01 -0.3001267E+01  0.5808411E-01  0.8204600E-02
  0.1970410E+01 -0.9905930E+01 -0.2310450E+00  0.6316663E-01  0.2925786E+01  0.6170142E-01 -0.1352619E-01
  0.2931880E+01 -0.9665100E+01 -0.2310450E+00  0.7436374E-01  0.2659809E+01  0.6589890E-01 -0.3445724E-01
  0.3865100E+01 -0.9331180E+01 -0.2310450E+00  0.8897652E-01  0.2484804E+01  0.7046561E-01 -0.5432697E-01
  0.4761110E+01 -0.8907410E+01 -0.2310450E+00  0.1045899E+00  0.2375431E+01  0.7536508E-01 -0.7252001E-01
  0.5611260E+01 -0.8397840E+01 -0.2310450E+00  0.1204495E+00  0.2302422E+01  0.8046994E-01 -0.8962516E-01
  0.6407370E+01 -0.7807410E+01 -0.2310450E+00  0.1356293E+00  0.2253342E+01  0.8555096E-01 -0.1052442E+00
  0.7141780E+01 -0.7141780E+01 -0.2310450E+00  0.1496821E+00  0.2219101E+01  0.9038343E-01 -0.1193130E+00
  0.7807410E+01 -0.6407370E+01 -0.2310450E+00  0.1616326E+00  0.2197590E+01  0.9480578E-01 -0.1309082E+00
  0.8397840E+01 -0.5611260E+01 -0.2310450E+00  0.1721461E+00  0.2182189E+01  0.9881333E-01 -0.1409617E+00
  0.8907410E+01 -0.4761110E+01 -0.2310450E+00  0.1808073E+00  0.2171417E+01  0.1021841E+00 -0.1491633E+00
  0.9331180E+01 -0.3865100E+01 -0.2310450E+00  0.1876049E+00  0.2163549E+01  0.1048048E+00 -0.1556007E+00
  0.9665100E+01 -0.2931870E+01 -0.2310450E+00  0.1915049E+00  0.2160302E+01  0.1064672E+00 -0.1591818E+00
  0.9905930E+01 -0.1970410E+01 -0.2310450E+00  0.1934933E+00  0.2158630E+01  0.1073036E+00 -0.1610143E+00
  0.1005140E+02 -0.9899690E+00 -0.2310450E+00  0.1933283E+00  0.2158657E+01  0.1072163E+00 -0.1608741E+00
  0.1010000E+02  0.0000000E+00 -0.4105000E+00  0.1903379E+00  0.2159874E+01  0.1057506E+00 -0.1582571E+00
  0.1005140E+02  0.9899730E+00 -0.4105000E+00  0.1853403E+00  0.2165300E+01  0.1038087E+00 -0.1535409E+00
  0.9905930E+01  0.1970410E+01 -0.4105000E+00  0.1783488E+00  0.2173122E+01  0.1010454E+00 -0.1469631E+00
  0.9665100E+01  0.2931880E+01 -0.4105000E+00  0.1694662E+00  0.2184284E+01  0.9756547E-01 -0.1385632E+00
  0.9331180E+01  0.3865100E+01 -0.4105000E+00  0.1589427E+00  0.2200146E+01  0.9355675E-01 -0.1284909E+00
  0.8907400E+01  0.4761110E+01 -0.4105000E+00  0.1461812E+00  0.2225507E+01  0.8901406E-01 -0.1159545E+00
  0.8397840E+01  0.5611260E+01 -0.4105000E+00  0.1319796E+00  0.2261605E+01  0.8409226E-01 -0.1017208E+00
  0.7807410E+01  0.6407370E+01 -0.4105000E+00  0.1167659E+00  0.2314085E+01  0.7901705E-01 -0.8596852E-01
  0.7141780E+01  0.7141780E+01 -0.4105000E+00  0.1011724E+00  0.2391578E+01  0.7402576E-01 -0.6896410E-01
  0.6407370E+01  0.7807410E+01 -0.4105000E+00  0.8548859E-01  0.2514416E+01  0.6921904E-01 -0.5016994E-01
  0.5611260E+01  0.8397840E+01 -0.4105000E+00  0.7134613E-01  0.2705449E+01  0.6466725E-01 -0.3013996E-01
  0.4761110E+01  0.8907410E+01 -0.4105000E+00  0.6127666E-01  0.2991238E+01  0.6058533E-01 -0.9178584E-02
  0.3865100E+01  0.9331180E+01 -0.4105000E+00  0.5844584E-01 -0.2929043E+01  0.5713058E-01  0.1232934E-01
  0.2931870E+01  0.9665100E+01 -0.4105000E+00  0.6449122E-01 -0.2575754E+01  0.5443956E-01  0.3457531E-01
  0.1970410E+01  0.9905930E+01 -0.4105000E+00  0.7770398E-01 -0.2312052E+01  0.5246685E-01  0.5731611E-01
  0.9899730E+00  0.1005140E+02 -0.4105000E+00  0.9515286E-01 -0.2140140E+01  0.5129491E-01  0.8014300E-01
 -0.4414850E-06  0.1010000E+02 -0.4105000E+00  0.1145824E+00 -0.2031182E+01  0.5090829E-01  0.1026522E+00
 -0.9899740E+00  0.1005140E+02 -0.4105000E+00  0.1348445E+00 -0.1961827E+01  0.5139484E-01  0.1246660E+00
 -0.1970410E+01  0.9905930E+01 -0.4105000E+00  0.1554761E+00 -0.1916111E+01  0.5262757E-01  0.1462982E+00
 -0.2931880E+01  0.9665100E+01 -0.4105000E+00  0.1758242E+00 -0.1886026E+01  0.5451158E-01  0.1671605E+00
 -0.3865100E+01  0.9331180E+01 -0.4105000E+00  0.1953721E+00 -0.1866194E+01  0.5687673E-01  0.1869099E+00
 -0.4761110E+01  0.8907400E+01 -0.4105000E+00  0.2135727E+00 -0.1854155E+01  0.5971105E-01  0.2050558E+00
 -0.5611260E+01  0.8397840E+01 -0.4105000E+00  0.2308048E+00 -0.1846766E+01  0.6288971E-01  0.2220715E+00
 -0.6407370E+01  0.7807410E+01 -0.4105000E+00  0.2467055E+00 -0.1842480E+01  0.6620434E-01  0.2376564E+00
 -0.7141780E+01  0.7141780E+01 -0.4105000E+00  0.2610223E+00 -0.1840081E+01  0.6944278E-01  0.2516154E+00