 VARIABLES="X" "Y" "Z" "abs(eta) (m)" "angle(phi) (rad)" "PRE1" "PRE2"
ZONE N=   3200 ,E =    3136 ,F=FEPOINT,ET=QUADRILATERAL
  0.1100000E+02  0.0000000E+00  0.0000000E+00  0.4727967E-05 -0.6205815E+00 -0.3846392E-05  0.2749352E-05
  0.1094700E+02  0.1078190E+01  0.0000000E+00  0.2057137E-01 -0.1472157E+01 -0.2025858E-02  0.2047137E-01
  0.1078860E+02  0.2145990E+01  0.0000000E+00  0.4105774E-01 -0.1472508E+01 -0.4028996E-02  0.4085958E-01
  0.1052630E+02  0.3193130E+01  0.0000000E+00  0.6075093E-01 -0.1471921E+01 -0.5996977E-02  0.6045421E-01
  0.1016270E+02  0.4209520E+01  0.0000000E+00  0.8009646E-01 -0.1471962E+01 -0.7903376E-02  0.7970558E-01
  0.9701130E+01  0.5185360E+01  0.0000000E+00  0.9875628E-01 -0.1472080E+01 -0.9733084E-02  0.9827548E-01
  0.9146170E+01  0.6111270E+01  0.0000000E+00  0.1169163E+00 -0.1472565E+01 -0.1146641E-01  0.1163527E+00
  0.8503110E+01  0.6978330E+01  0.0000000E+00  0.1328206E+00 -0.1472009E+01 -0.1309963E-01  0.1321730E+00
  0.7778170E+01  0.7778170E+01  0.0000000E+00  0.1479963E+00 -0.1471982E+01 -0.1460030E-01  0.1472743E+00
  0.6978330E+01  0.8503110E+01  0.0000000E+00  0.1619083E+00 -0.1472067E+01 -0.1595919E-01  0.1611198E+00
  0.6111270E+01  0.9146170E+01  0.0000000E+00  0.1749777E+00 -0.1472576E+01 -0.1715879E-01  0.1741344E+00
  0.5185360E+01  0.9701130E+01  0.0000000E+00  0.1846688E+00 -0.1472034E+01 -0.1820868E-01  0.1837689E+00
  0.4209520E+01  0.1016270E+02  0.0000000E+00  0.1933679E+00 -0.1471990E+01 -0.1907499E-01  0.1924247E+00
  0.3193130E+01  0.1052630E+02  0.0000000E+00  0.2004096E+00 -0.1472057E+01 -0.1975626E-01  0.1994335E+00
  0.2145990E+01  0.1078860E+02  0.0000000E+00  0.2063984E+00 -0.1472578E+01 -0.2023943E-01  0.2054036E+00
  0.1078190E+01  0.1094700E+02  0.0000000E+00  0.2084043E+00 -0.1472048E+01 -0.2054612E-01  0.2073891E+00
 -0.4808250E-06  0.1100000E+02  0.0000000E+00  0.2093003E+00 -0.1471991E+01 -0.2064635E-01  0.2082794E+00
 -0.1078190E+01  0.1094700E+02  0.0000000E+00  0.2084044E+00 -0.1472048E+01 -0.2054616E-01  0.2073891E+00
 -0.2145990E+01  0.1078860E+02  0.0000000E+00  0.2063990E+00 -0.1472579E+01 -0.2023949E-01  0.2054043E+00
 -0.3193130E+01  0.1052630E+02  0.0000000E+00  0.2004105E+00 -0.1472057E+01 -0.1975626E-01  0.1994344E+00
 -0.4209520E+01  0.1016270E+02  0.0000000E+00  0.1933691E+00 -0.1471990E+01 -0.1907511E-01  0.1924260E+00
 -0.5185370E+01  0.9701130E+01  0.0000000E+00  0.1846703E+00 -0.1472034E+01 -0.1820878E-01  0.1837704E+00
 -0.6111270E+01  0.9146160E+01  0.0000000E+00  0.1749787E+00 -0.1472576E+01 -0.1715885E-01  0.1741353E+00
 -0.6978330E+01  0.8503120E+01  0.0000000E+00  0.1619106E+00 -0.1472067E+01 -0.1595936E-01  0.1611221E+00
 -0.7778170E+01  0.7778170E+01  0.0000000E+00  0.1479984E+00 -0.1471983E+01 -0.1460043E-01  0.1472765E+00
 -0.8503120E+01  0.6978330E+01  0.0000000E+00  0.1328227E+00 -0.1472009E+01 -0.1309984E-01  0.1321751E+00
 -0.9146170E+01  0.6111270E+01  0.0000000E+00  0.1169183E+00 -0.1472565E+01 -0.1146661E-01  0.1163546E+00
 -0.9701130E+01  0.5185360E+01  0.0000000E+00  0.9875841E-01 -0.1472080E+01 -0.9733289E-02  0.9827761E-01
 -0.1016270E+02  0.4209520E+01  0.0000000E+00  0.8009851E-01 -0.1471963E+01 -0.7903553E-02  0.7970762E-01
 -0.1052630E+02  0.3193130E+01  0.0000000E+00  0.6075310E-01 -0.1471920E+01 -0.5997249E-02  0.6045636E-01
 -0.1078860E+02  0.2145990E+01  0.0000000E+00  0.4105978E-01 -0.1472507E+01 -0.4029236E-02  0.4086160E-01
 -0.1094700E+02  0.1078190E+01  0.0000000E+00  0.2057333E-01 -0.1472153E+01 -0.2026131E-02  0.2047331E-01
 -0.1100000E+02 -0.9616510E-06  0.0000000E+00  0.6210708E-05 -0.8340343E+00 -0.4172933E-05  0.4599949E-05
 -0.1094700E+02 -0.1078190E+01  0.0000000E+00  0.2056340E-01  0.1669079E+01  0.2017782E-02 -0.2046416E-01
 -0.1078860E+02 -0.2146000E+01  0.0000000E+00  0.4105022E-01  0.1668903E+01  0.4020840E-02 -0.4085283E-01
 -0.1052630E+02 -0.3193130E+01  0.0000000E+00  0.6074312E-01  0.1669551E+01  0.5988917E-02 -0.6044717E-01
 -0.1016270E+02 -0.4209520E+01  0.0000000E+00  0.8008828E-01  0.1669538E+01  0.7895238E-02 -0.7969817E-01
 -0.9701130E+01 -0.5185360E+01  0.0000000E+00  0.9874817E-01  0.1669439E+01  0.9725036E-02 -0.9826813E-01
 -0.9146160E+01 -0.6111270E+01  0.0000000E+00  0.1169076E+00  0.1668965E+01  0.1145825E-01 -0.1163448E+00
 -0.8503110E+01 -0.6978330E+01  0.0000000E+00  0.1328119E+00  0.1669529E+01  0.1309155E-01 -0.1321651E+00
 -0.7778170E+01 -0.7778180E+01  0.0000000E+00  0.1479878E+00  0.1669561E+01  0.1459217E-01 -0.1472666E+00
 -0.6978330E+01 -0.8503110E+01  0.0000000E+00  0.1618994E+00  0.1669481E+01  0.1595115E-01 -0.1611117E+00
 -0.6111270E+01 -0.9146170E+01  0.0000000E+00  0.1749684E+00  0.1668975E+01  0.1715066E-01 -0.1741258E+00
 -0.5185360E+01 -0.9701130E+01  0.0000000E+00  0.1846596E+00  0.1669519E+01  0.1820054E-01 -0.1837605E+00
 -0.4209510E+01 -0.1016270E+02  0.0000000E+00  0.1933579E+00  0.1669566E+01  0.1906685E-01 -0.1924156E+00
 -0.3193130E+01 -0.1052630E+02  0.0000000E+00  0.2003999E+00  0.1669500E+01  0.1974807E-01 -0.1994245E+00
 -0.2145990E+01 -0.1078860E+02  0.0000000E+00  0.2063885E+00  0.1668979E+01  0.2023133E-01 -0.2053945E+00
 -0.1078190E+01 -0.1094700E+02  0.0000000E+00  0.2083939E+00  0.1669511E+01  0.2053805E-01 -0.2073794E+00
  0.1311740E-06 -0.1100000E+02  0.0000000E+00  0.2092898E+00  0.1669567E+01  0.2063820E-01 -0.2082697E+00
  0.1078190E+01 -0.1094700E+02  0.0000000E+00  0.2083943E+00  0.1669510E+01  0.2053802E-01 -0.2073797E+00
  0.2145990E+01 -0.1078860E+02  0.0000000E+00  0.2063886E+00  0.1668979E+01  0.2023134E-01 -0.2053947E+00
  0.3193140E+01 -0.1052630E+02  0.0000000E+00  0.2004006E+00  0.1669499E+01  0.1974803E-01 -0.1994253E+00
  0.4209520E+01 -0.1016270E+02  0.0000000E+00  0.1933589E+00  0.1669566E+01  0.1906695E-01 -0.1924165E+00
  0.5185360E+01 -0.9701130E+01  0.0000000E+00  0.1846602E+00  0.1669520E+01  0.1820071E-01 -0.1837611E+00
  0.6111270E+01 -0.9146160E+01  0.0000000E+00  0.1749688E+00  0.1668976E+01  0.1715080E-01 -0.1741262E+00
  0.6978330E+01 -0.8503110E+01  0.0000000E+00  0.1619005E+00  0.1669481E+01  0.1595122E-01 -0.1611128E+00
  0.7778180E+01 -0.7778170E+01  0.0000000E+00  0.1479888E+00  0.1669561E+01  0.1459237E-01 -0.1472676E+00
  0.8503120E+01 -0.6978320E+01  0.0000000E+00  0.1328131E+00  0.1669530E+01  0.1309177E-01 -0.1321663E+00
  0.9146170E+01 -0.6111270E+01  0.0000000E+00  0.1169093E+00  0.1668966E+01  0.1145857E-01 -0.1163464E+00
  0.9701130E+01 -0.5185360E+01  0.0000000E+00  0.9874955E-01  0.1669440E+01  0.9725230E-02 -0.9826949E-01
  0.1016270E+02 -0.4209520E+01  0.0000000E+00  0.8008974E-01  0.1669540E+01  0.7895482E-02 -0.7969961E-01
  0.1052630E+02 -0.3193130E+01  0.0000000E+00  0.6074461E-01  0.1669553E+01  0.5989169E-02 -0.6044863E-01
  0.1078860E+02 -0.2145990E+01  0.0000000E+00  0.4105146E-01  0.1668907E+01  0.4021112E-02 -0.4085404E-01
  0.1094700E+02 -0.1078180E+01  0.0000000E+00  0.2056497E-01  0.1669080E+01  0.2017944E-02 -0.2046573E-01
  0.1100000E+02  0.0000000E+00 -0.2568960E-01  0.4776700E-05 -0.6194966E+00 -0.3889050E-05  0.2773473E-05
  0.1094700E+02  0.1078190E+01 -0.2568960E-01  0.2054602E-01 -0.1472102E+01 -0.2024488E-02  0.2044604E-01
  0.1078860E+02  0.2145990E+01 -0.2568960E-01  0.4099794E-01 -0.1472428E+01 -0.4026379E-02  0.4079974E-01
  0.1052630E+02  0.3193130E+01 -0.2568960E-01  0.6067118E-01 -0.1471857E+01 -0.5992999E-02  0.6037447E-01
  0.1016270E+02  0.4209520E+01 -0.2568960E-01  0.8000112E-01 -0.1471912E+01 -0.7897979E-02  0.7961031E-01
  0.9701130E+01  0.5185360E+01 -0.2568960E-01  0.9862945E-01 -0.1472018E+01 -0.9726593E-02  0.9814867E-01
  0.9146170E+01  0.6111270E+01 -0.2568960E-01  0.1167460E+00 -0.1472485E+01 -0.1145894E-01  0.1161823E+00
  0.8503110E+01  0.6978330E+01 -0.2568960E-01  0.1326476E+00 -0.1471945E+01 -0.1309101E-01  0.1320001E+00
  0.7778170E+01  0.7778170E+01 -0.2568960E-01  0.1478202E+00 -0.1471932E+01 -0.1459036E-01  0.1470983E+00
  0.6978330E+01  0.8503110E+01 -0.2568960E-01  0.1616994E+00 -0.1472005E+01 -0.1594852E-01  0.1609110E+00
  0.6111270E+01  0.9146170E+01 -0.2568960E-01  0.1747224E+00 -0.1472496E+01 -0.1714756E-01  0.1738789E+00
  0.5185360E+01  0.9701130E+01 -0.2568960E-01  0.1844291E+00 -0.1471972E+01 -0.1819652E-01  0.1835292E+00
  0.4209520E+01  0.1016270E+02 -0.2568960E-01  0.1931378E+00 -0.1471939E+01 -0.1906204E-01  0.1921948E+00
  0.3193130E+01  0.1052630E+02 -0.2568960E-01  0.2001506E+00 -0.1471995E+01 -0.1974307E-01  0.1991745E+00
  0.2145990E+01  0.1078860E+02 -0.2568960E-01  0.2060975E+00 -0.1472499E+01 -0.2022625E-01  0.2051026E+00
  0.1078190E+01  0.1094700E+02 -0.2568960E-01  0.2081343E+00 -0.1471986E+01 -0.2053243E-01  0.2071191E+00
 -0.4808250E-06  0.1100000E+02 -0.2568960E-01  0.2090510E+00 -0.1471940E+01 -0.2063234E-01  0.2080304E+00
 -0.1078190E+01  0.1094700E+02 -0.2568960E-01  0.2081346E+00 -0.1471986E+01 -0.2053247E-01  0.2071194E+00
 -0.2145990E+01  0.1078860E+02 -0.2568960E-01  0.2060981E+00 -0.1472499E+01 -0.2022636E-01  0.2051032E+00
 -0.3193130E+01  0.1052630E+02 -0.2568960E-01  0.2001514E+00 -0.1471995E+01 -0.1974312E-01  0.1991753E+00
 -0.4209520E+01  0.1016270E+02 -0.2568960E-01  0.1931387E+00 -0.1471938E+01 -0.1906222E-01  0.1921957E+00
 -0.5185370E+01  0.9701130E+01 -0.2568960E-01  0.1844305E+00 -0.1471972E+01 -0.1819658E-01  0.1835306E+00
 -0.6111270E+01  0.9146160E+01 -0.2568960E-01  0.1747237E+00 -0.1472496E+01 -0.1714779E-01  0.1738802E+00
 -0.6978330E+01  0.8503120E+01 -0.2568960E-01  0.1617015E+00 -0.1472005E+01 -0.1594864E-01  0.1609131E+00
 -0.7778170E+01  0.7778170E+01 -0.2568960E-01  0.1478221E+00 -0.1471932E+01 -0.1459057E-01  0.1471003E+00
 -0.8503120E+01  0.6978330E+01 -0.2568960E-01  0.1326496E+00 -0.1471946E+01 -0.1309113E-01  0.1320021E+00
 -0.9146170E+01  0.6111270E+01 -0.2568960E-01  0.1167479E+00 -0.1472485E+01 -0.1145915E-01  0.1161841E+00
 -0.9701130E+01  0.5185360E+01 -0.2568960E-01  0.9863158E-01 -0.1472018E+01 -0.9726840E-02  0.9815079E-01
 -0.1016270E+02  0.4209520E+01 -0.2568960E-01  0.8000318E-01 -0.1471911E+01 -0.7898275E-02  0.7961235E-01
 -0.1052630E+02  0.3193130E+01 -0.2568960E-01  0.6067327E-01 -0.1471856E+01 -0.5993220E-02  0.6037654E-01
 -0.1078860E+02  0.2145990E+01 -0.2568960E-01  0.4099990E-01 -0.1472429E+01 -0.4026568E-02  0.4080170E-01
 -0.1094700E+02  0.1078190E+01 -0.2568960E-01  0.2054788E-01 -0.1472097E+01 -0.2024765E-02  0.2044788E-01
 -0.1100000E+02 -0.9616510E-06 -0.2568960E-01  0.6184852E-05 -0.8357591E+00 -0.4147653E-05  0.4587959E-05
 -0.1094700E+02 -0.1078190E+01 -0.2568960E-01  0.2053794E-01  0.1669136E+01  0.2016449E-02 -0.2043871E-01
 -0.1078860E+02 -0.2146000E+01 -0.2568960E-01  0.4099033E-01  0.1668985E+01  0.4018323E-02 -0.4079289E-01
 -0.1052630E+02 -0.3193130E+01 -0.2568960E-01  0.6066332E-01  0.1669615E+01  0.5984891E-02 -0.6036738E-01
 -0.1016270E+02 -0.4209520E+01 -0.2568960E-01  0.7999310E-01  0.1669589E+01  0.7889915E-02 -0.7960305E-01
 -0.9701130E+01 -0.5185360E+01 -0.2568960E-01  0.9862124E-01  0.1669501E+01  0.9718557E-02 -0.9814122E-01
 -0.9146160E+01 -0.6111270E+01 -0.2568960E-01  0.1167374E+00  0.1669045E+01  0.1145088E-01 -0.1161744E+00
 -0.8503110E+01 -0.6978330E+01 -0.2568960E-01  0.1326389E+00  0.1669592E+01  0.1308289E-01 -0.1319921E+00
 -0.7778170E+01 -0.7778180E+01 -0.2568960E-01  0.1478115E+00  0.1669612E+01  0.1458232E-01 -0.1470904E+00
 -0.6978330E+01 -0.8503110E+01 -0.2568960E-01  0.1616906E+00  0.1669542E+01  0.1594039E-01 -0.1609030E+00
 -0.6111270E+01 -0.9146170E+01 -0.2568960E-01  0.1747133E+00  0.1669055E+01  0.1713953E-01 -0.1738706E+00
 -0.5185360E+01 -0.9701130E+01 -0.2568960E-01  0.1844198E+00  0.1669582E+01  0.1818844E-01 -0.1835207E+00
 -0.4209510E+01 -0.1016270E+02 -0.2568960E-01  0.1931278E+00  0.1669617E+01  0.1905403E-01 -0.1921856E+00
 -0.3193130E+01 -0.1052630E+02 -0.2568960E-01  0.2001407E+00  0.1669562E+01  0.1973493E-01 -0.1991654E+00
 -0.2145990E+01 -0.1078860E+02 -0.2568960E-01  0.2060874E+00  0.1669059E+01  0.2021817E-01 -0.2050933E+00
 -0.1078190E+01 -0.1094700E+02 -0.2568960E-01  0.2081239E+00  0.1669573E+01  0.2052430E-01 -0.2071094E+00
  0.1311740E-06 -0.1100000E+02 -0.2568960E-01  0.2090408E+00  0.1669618E+01  0.2062415E-01 -0.2080209E+00
  0.1078190E+01 -0.1094700E+02 -0.2568960E-01  0.2081242E+00  0.1669573E+01  0.2052437E-01 -0.2071097E+00
  0.2145990E+01 -0.1078860E+02 -0.2568960E-01  0.2060880E+00  0.1669059E+01  0.2021820E-01 -0.2050939E+00
  0.3193140E+01 -0.1052630E+02 -0.2568960E-01  0.2001414E+00  0.1669562E+01  0.1973506E-01 -0.1991660E+00
  0.4209520E+01 -0.1016270E+02 -0.2568960E-01  0.1931285E+00  0.1669617E+01  0.1905410E-01 -0.1921863E+00
  0.5185360E+01 -0.9701130E+01 -0.2568960E-01  0.1844203E+00  0.1669583E+01  0.1818861E-01 -0.1835212E+00
  0.6111270E+01 -0.9146160E+01 -0.2568960E-01  0.1747138E+00  0.1669055E+01  0.1713959E-01 -0.1738710E+00
  0.6978330E+01 -0.8503110E+01 -0.2568960E-01  0.1616914E+00  0.1669543E+01  0.1594058E-01 -0.1609037E+00
  0.7778180E+01 -0.7778170E+01 -0.2568960E-01  0.1478127E+00  0.1669612E+01  0.1458241E-01 -0.1470916E+00
  0.8503120E+01 -0.6978320E+01 -0.2568960E-01  0.1326401E+00  0.1669592E+01  0.1308294E-01 -0.1319933E+00
  0.9146170E+01 -0.6111270E+01 -0.2568960E-01  0.1167388E+00  0.1669046E+01  0.1145107E-01 -0.1161759E+00
  0.9701130E+01 -0.5185360E+01 -0.2568960E-01  0.9862266E-01  0.1669501E+01  0.9718748E-02 -0.9814262E-01
  0.1016270E+02 -0.4209520E+01 -0.2568960E-01  0.7999448E-01  0.1669590E+01  0.7890070E-02 -0.7960442E-01
  0.1052630E+02 -0.3193130E+01 -0.2568960E-01  0.6066477E-01  0.1669616E+01  0.5985105E-02 -0.6036881E-01
  0.1078860E+02 -0.2145990E+01 -0.2568960E-01  0.4099167E-01  0.1668986E+01  0.4018506E-02 -0.4079422E-01
  0.1094700E+02 -0.1078180E+01 -0.2568960E-01  0.2053947E-01  0.1669138E+01  0.2016632E-02 -0.2044023E-01
  0.1100000E+02  0.0000000E+00 -0.1027320E+00  0.4741366E-05 -0.6108072E+00 -0.3884057E-05  0.2719310E-05
  0.1094700E+02  0.1078190E+01 -0.1027320E+00  0.2048521E-01 -0.1472008E+01 -0.2020420E-02  0.2038534E-01
  0.1078860E+02  0.2145990E+01 -0.1027320E+00  0.4085166E-01 -0.1472271E+01 -0.4018430E-02  0.4065354E-01
  0.1052630E+02  0.3193130E+01 -0.1027320E+00  0.6049008E-01 -0.1471764E+01 -0.5980704E-02  0.6019369E-01
  0.1016270E+02  0.4209520E+01 -0.1027320E+00  0.7978213E-01 -0.1471845E+01 -0.7881651E-02  0.7939186E-01
  0.9701130E+01  0.5185360E+01 -0.1027320E+00  0.9833614E-01 -0.1471925E+01 -0.9706811E-02  0.9785588E-01
  0.9146170E+01  0.6111270E+01 -0.1027320E+00  0.1163291E+00 -0.1472327E+01 -0.1143630E-01  0.1157656E+00
  0.8503110E+01  0.6978330E+01 -0.1027320E+00  0.1322521E+00 -0.1471853E+01 -0.1306413E-01  0.1316053E+00
  0.7778170E+01  0.7778170E+01 -0.1027320E+00  0.1474153E+00 -0.1471865E+01 -0.1456017E-01  0.1466945E+00
  0.6978330E+01  0.8503110E+01 -0.1027320E+00  0.1612184E+00 -0.1471912E+01 -0.1591600E-01  0.1604308E+00
  0.6111270E+01  0.9146170E+01 -0.1027320E+00  0.1740991E+00 -0.1472339E+01 -0.1711370E-01  0.1732560E+00
  0.5185360E+01  0.9701130E+01 -0.1027320E+00  0.1838796E+00 -0.1471878E+01 -0.1815936E-01  0.1829808E+00
  0.4209520E+01  0.1016270E+02 -0.1027320E+00  0.1926086E+00 -0.1471872E+01 -0.1902257E-01  0.1916670E+00
  0.3193130E+01  0.1052630E+02 -0.1027320E+00  0.1995547E+00 -0.1471902E+01 -0.1970270E-01  0.1985796E+00
  0.2145990E+01  0.1078860E+02 -0.1027320E+00  0.2053620E+00 -0.1472341E+01 -0.2018634E-01  0.2043675E+00
  0.1078190E+01  0.1094700E+02 -0.1027320E+00  0.2075142E+00 -0.1471893E+01 -0.2049048E-01  0.2065001E+00
 -0.4808250E-06  0.1100000E+02 -0.1027320E+00  0.2084786E+00 -0.1471874E+01 -0.2058960E-01  0.2074594E+00
 -0.1078190E+01  0.1094700E+02 -0.1027320E+00  0.2075146E+00 -0.1471893E+01 -0.2049046E-01  0.2065004E+00
 -0.2145990E+01  0.1078860E+02 -0.1027320E+00  0.2053625E+00 -0.1472341E+01 -0.2018638E-01  0.2043679E+00
 -0.3193130E+01  0.1052630E+02 -0.1027320E+00  0.1995557E+00 -0.1471902E+01 -0.1970284E-01  0.1985806E+00
 -0.4209520E+01  0.1016270E+02 -0.1027320E+00  0.1926099E+00 -0.1471872E+01 -0.1902267E-01  0.1916682E+00
 -0.5185370E+01  0.9701130E+01 -0.1027320E+00  0.1838811E+00 -0.1471879E+01 -0.1815933E-01  0.1829822E+00
 -0.6111270E+01  0.9146160E+01 -0.1027320E+00  0.1741002E+00 -0.1472339E+01 -0.1711381E-01  0.1732571E+00
 -0.6978330E+01  0.8503120E+01 -0.1027320E+00  0.1612204E+00 -0.1471912E+01 -0.1591618E-01  0.1604328E+00
 -0.7778170E+01  0.7778170E+01 -0.1027320E+00  0.1474172E+00 -0.1471865E+01 -0.1456035E-01  0.1466964E+00
 -0.8503120E+01  0.6978330E+01 -0.1027320E+00  0.1322542E+00 -0.1471853E+01 -0.1306431E-01  0.1316074E+00
 -0.9146170E+01  0.6111270E+01 -0.1027320E+00  0.1163312E+00 -0.1472328E+01 -0.1143648E-01  0.1157677E+00
 -0.9701130E+01  0.5185360E+01 -0.1027320E+00  0.9833829E-01 -0.1471925E+01 -0.9706961E-02  0.9785803E-01
 -0.1016270E+02  0.4209520E+01 -0.1027320E+00  0.7978410E-01 -0.1471845E+01 -0.7881860E-02  0.7939383E-01
 -0.1052630E+02  0.3193130E+01 -0.1027320E+00  0.6049212E-01 -0.1471764E+01 -0.5980901E-02  0.6019572E-01
 -0.1078860E+02  0.2145990E+01 -0.1027320E+00  0.4085366E-01 -0.1472270E+01 -0.4018672E-02  0.4065553E-01
 -0.1094700E+02  0.1078190E+01 -0.1027320E+00  0.2048715E-01 -0.1472005E+01 -0.2020653E-02  0.2038726E-01
 -0.1100000E+02 -0.9616510E-06 -0.1027320E+00  0.6056210E-05 -0.8305202E+00 -0.4084864E-05  0.4471193E-05
 -0.1094700E+02 -0.1078190E+01 -0.1027320E+00  0.2047731E-01  0.1669228E+01  0.2012360E-02 -0.2037819E-01
 -0.1078860E+02 -0.2146000E+01 -0.1027320E+00  0.4084409E-01  0.1669141E+01  0.4010324E-02 -0.4064674E-01
 -0.1052630E+02 -0.3193130E+01 -0.1027320E+00  0.6048203E-01  0.1669708E+01  0.5972608E-02 -0.6018641E-01
 -0.1016270E+02 -0.4209520E+01 -0.1027320E+00  0.7977398E-01  0.1669657E+01  0.7873633E-02 -0.7938448E-01
 -0.9701130E+01 -0.5185360E+01 -0.1027320E+00  0.9832788E-01  0.1669594E+01  0.9698746E-02 -0.9784838E-01
 -0.9146160E+01 -0.6111270E+01 -0.1027320E+00  0.1163209E+00  0.1669202E+01  0.1142821E-01 -0.1157581E+00
 -0.8503110E+01 -0.6978330E+01 -0.1027320E+00  0.1322436E+00  0.1669685E+01  0.1305614E-01 -0.1315975E+00
 -0.7778170E+01 -0.7778180E+01 -0.1027320E+00  0.1474069E+00  0.1669678E+01  0.1455207E-01 -0.1466868E+00
 -0.6978330E+01 -0.8503110E+01 -0.1027320E+00  0.1612095E+00  0.1669636E+01  0.1590793E-01 -0.1604227E+00
 -0.6111270E+01 -0.9146170E+01 -0.1027320E+00  0.1740897E+00  0.1669212E+01  0.1710553E-01 -0.1732473E+00
 -0.5185360E+01 -0.9701130E+01 -0.1027320E+00  0.1838703E+00  0.1669675E+01  0.1815125E-01 -0.1829722E+00
 -0.4209510E+01 -0.1016270E+02 -0.1027320E+00  0.1925992E+00  0.1669683E+01  0.1901448E-01 -0.1916583E+00
 -0.3193130E+01 -0.1052630E+02 -0.1027320E+00  0.1995449E+00  0.1669655E+01  0.1969458E-01 -0.1985706E+00
 -0.2145990E+01 -0.1078860E+02 -0.1027320E+00  0.2053520E+00  0.1669217E+01  0.2017827E-01 -0.2043582E+00
 -0.1078190E+01 -0.1094700E+02 -0.1027320E+00  0.2075043E+00  0.1669666E+01  0.2048238E-01 -0.2064909E+00
  0.1311740E-06 -0.1100000E+02 -0.1027320E+00  0.2084685E+00  0.1669685E+01  0.2058151E-01 -0.2074500E+00
  0.1078190E+01 -0.1094700E+02 -0.1027320E+00  0.2075043E+00  0.1669666E+01  0.2048242E-01 -0.2064909E+00
  0.2145990E+01 -0.1078860E+02 -0.1027320E+00  0.2053523E+00  0.1669217E+01  0.2017824E-01 -0.2043586E+00
  0.3193140E+01 -0.1052630E+02 -0.1027320E+00  0.1995452E+00  0.1669655E+01  0.1969464E-01 -0.1985710E+00
  0.4209520E+01 -0.1016270E+02 -0.1027320E+00  0.1925998E+00  0.1669683E+01  0.1901450E-01 -0.1916589E+00
  0.5185360E+01 -0.9701130E+01 -0.1027320E+00  0.1838712E+00  0.1669675E+01  0.1815137E-01 -0.1829731E+00
  0.6111270E+01 -0.9146160E+01 -0.1027320E+00  0.1740904E+00  0.1669213E+01  0.1710573E-01 -0.1732480E+00
  0.6978330E+01 -0.8503110E+01 -0.1027320E+00  0.1612103E+00  0.1669636E+01  0.1590808E-01 -0.1604235E+00
  0.7778180E+01 -0.7778170E+01 -0.1027320E+00  0.1474079E+00  0.1669678E+01  0.1455222E-01 -0.1466879E+00
  0.8503120E+01 -0.6978320E+01 -0.1027320E+00  0.1322448E+00  0.1669685E+01  0.1305625E-01 -0.1315987E+00
  0.9146170E+01 -0.6111270E+01 -0.1027320E+00  0.1163222E+00  0.1669203E+01  0.1142844E-01 -0.1157594E+00
  0.9701130E+01 -0.5185360E+01 -0.1027320E+00  0.9832936E-01  0.1669594E+01  0.9698950E-02 -0.9784985E-01
  0.1016270E+02 -0.4209520E+01 -0.1027320E+00  0.7977552E-01  0.1669657E+01  0.7873837E-02 -0.7938600E-01
  0.1052630E+02 -0.3193130E+01 -0.1027320E+00  0.6048358E-01  0.1669708E+01  0.5972812E-02 -0.6018795E-01
  0.1078860E+02 -0.2145990E+01 -0.1027320E+00  0.4084538E-01  0.1669146E+01  0.4010649E-02 -0.4064799E-01
  0.1094700E+02 -0.1078180E+01 -0.1027320E+00  0.2047886E-01  0.1669234E+01  0.2012631E-02 -0.2037972E-01
  0.1100000E+02  0.0000000E+00 -0.2310450E+00  0.4784733E-05 -0.6202971E+00 -0.3893365E-05  0.2781255E-05
  0.1094700E+02  0.1078190E+01 -0.2310450E+00  0.2042020E-01 -0.1472020E+01 -0.2013751E-02  0.2032067E-01
  0.1078860E+02  0.2145990E+01 -0.2310450E+00  0.4069281E-01 -0.1472209E+01 -0.4005284E-02  0.4049522E-01
  0.1052630E+02  0.3193130E+01 -0.2310450E+00  0.6030953E-01 -0.1471805E+01 -0.5960383E-02  0.6001427E-01
  0.1016270E+02  0.4209520E+01 -0.2310450E+00  0.7956846E-01 -0.1471919E+01 -0.7854673E-02  0.7917982E-01
  0.9701130E+01  0.5185360E+01 -0.2310450E+00  0.9803545E-01 -0.1471957E+01 -0.9673981E-02  0.9755698E-01
  0.9146170E+01  0.6111270E+01 -0.2310450E+00  0.1158768E+00 -0.1472266E+01 -0.1139889E-01  0.1153148E+00
  0.8503110E+01  0.6978330E+01 -0.2310450E+00  0.1318537E+00 -0.1471891E+01 -0.1301977E-01  0.1312093E+00
  0.7778170E+01  0.7778170E+01 -0.2310450E+00  0.1470206E+00 -0.1471940E+01 -0.1451025E-01  0.1463028E+00
  0.6978330E+01  0.8503110E+01 -0.2310450E+00  0.1607276E+00 -0.1471946E+01 -0.1586209E-01  0.1599430E+00
  0.6111270E+01  0.9146170E+01 -0.2310450E+00  0.1734221E+00 -0.1472278E+01 -0.1705769E-01  0.1725812E+00
  0.5185360E+01  0.9701130E+01 -0.2310450E+00  0.1833240E+00 -0.1471916E+01 -0.1809765E-01  0.1824285E+00
  0.4209520E+01  0.1016270E+02 -0.2310450E+00  0.1920932E+00 -0.1471947E+01 -0.1895736E-01  0.1911554E+00
  0.3193130E+01  0.1052630E+02 -0.2310450E+00  0.1989491E+00 -0.1471937E+01 -0.1963597E-01  0.1979777E+00
  0.2145990E+01  0.1078860E+02 -0.2310450E+00  0.2045637E+00 -0.1472280E+01 -0.2012022E-01  0.2035719E+00
  0.1078190E+01  0.1094700E+02 -0.2310450E+00  0.2068856E+00 -0.1471929E+01 -0.2042097E-01  0.2058753E+00
 -0.4808250E-06  0.1100000E+02 -0.2310450E+00  0.2079207E+00 -0.1471949E+01 -0.2051905E-01  0.2069057E+00
 -0.1078190E+01  0.1094700E+02 -0.2310450E+00  0.2068858E+00 -0.1471929E+01 -0.2042097E-01  0.2058755E+00
 -0.2145990E+01  0.1078860E+02 -0.2310450E+00  0.2045642E+00 -0.1472280E+01 -0.2012024E-01  0.2035723E+00
 -0.3193130E+01  0.1052630E+02 -0.2310450E+00  0.1989499E+00 -0.1471937E+01 -0.1963602E-01  0.1979785E+00
 -0.4209520E+01  0.1016270E+02 -0.2310450E+00  0.1920942E+00 -0.1471947E+01 -0.1895746E-01  0.1911565E+00
 -0.5185370E+01  0.9701130E+01 -0.2310450E+00  0.1833254E+00 -0.1471916E+01 -0.1809775E-01  0.1824299E+00
 -0.6111270E+01  0.9146160E+01 -0.2310450E+00  0.1734232E+00 -0.1472278E+01 -0.1705781E-01  0.1725822E+00
 -0.6978330E+01  0.8503120E+01 -0.2310450E+00  0.1607300E+00 -0.1471947E+01 -0.1586224E-01  0.1599454E+00
 -0.7778170E+01  0.7778170E+01 -0.2310450E+00  0.1470227E+00 -0.1471940E+01 -0.1451044E-01  0.1463049E+00
 -0.8503120E+01  0.6978330E+01 -0.2310450E+00  0.1318558E+00 -0.1471892E+01 -0.1301989E-01  0.1312114E+00
 -0.9146170E+01  0.6111270E+01 -0.2310450E+00  0.1158790E+00 -0.1472267E+01 -0.1139904E-01  0.1153170E+00
 -0.9701130E+01  0.5185360E+01 -0.2310450E+00  0.9803754E-01 -0.1471957E+01 -0.9674200E-02  0.9755906E-01
 -0.1016270E+02  0.4209520E+01 -0.2310450E+00  0.7957052E-01 -0.1471920E+01 -0.7854845E-02  0.7918188E-01
 -0.1052630E+02  0.3193130E+01 -0.2310450E+00  0.6031157E-01 -0.1471806E+01 -0.5960510E-02  0.6001631E-01
 -0.1078860E+02  0.2145990E+01 -0.2310450E+00  0.4069480E-01 -0.1472209E+01 -0.4005484E-02  0.4049720E-01
 -0.1094700E+02  0.1078190E+01 -0.2310450E+00  0.2042208E-01 -0.1472019E+01 -0.2013958E-02  0.2032254E-01
 -0.1100000E+02 -0.9616510E-06 -0.2310450E+00  0.6067422E-05 -0.8310173E+00 -0.4090200E-05  0.4481504E-05
 -0.1094700E+02 -0.1078190E+01 -0.2310450E+00  0.2041234E-01  0.1669219E+01  0.2005798E-02 -0.2031355E-01
 -0.1078860E+02 -0.2146000E+01 -0.2310450E+00  0.4068530E-01  0.1669204E+01  0.3997269E-02 -0.4048846E-01
 -0.1052630E+02 -0.3193130E+01 -0.2310450E+00  0.6030162E-01  0.1669665E+01  0.5952255E-02 -0.6000714E-01
 -0.1016270E+02 -0.4209520E+01 -0.2310450E+00  0.7956050E-01  0.1669583E+01  0.7846765E-02 -0.7917260E-01
 -0.9701130E+01 -0.5185360E+01 -0.2310450E+00  0.9802733E-01  0.1669562E+01  0.9665955E-02 -0.9754961E-01
 -0.9146160E+01 -0.6111270E+01 -0.2310450E+00  0.1158683E+00  0.1669264E+01  0.1139083E-01 -0.1153071E+00
 -0.8503110E+01 -0.6978330E+01 -0.2310450E+00  0.1318450E+00  0.1669646E+01  0.1301167E-01 -0.1312014E+00
 -0.7778170E+01 -0.7778180E+01 -0.2310450E+00  0.1470122E+00  0.1669604E+01  0.1450225E-01 -0.1462952E+00
 -0.6978330E+01 -0.8503110E+01 -0.2310450E+00  0.1607189E+00  0.1669602E+01  0.1585406E-01 -0.1599350E+00
 -0.6111270E+01 -0.9146170E+01 -0.2310450E+00  0.1734132E+00  0.1669274E+01  0.1704966E-01 -0.1725730E+00
 -0.5185360E+01 -0.9701130E+01 -0.2310450E+00  0.1833144E+00  0.1669638E+01  0.1808962E-01 -0.1824197E+00
 -0.4209510E+01 -0.1016270E+02 -0.2310450E+00  0.1920834E+00  0.1669609E+01  0.1894937E-01 -0.1911464E+00
 -0.3193130E+01 -0.1052630E+02 -0.2310450E+00  0.1989392E+00  0.1669620E+01  0.1962786E-01 -0.1979686E+00
 -0.2145990E+01 -0.1078860E+02 -0.2310450E+00  0.2045536E+00  0.1669278E+01  0.2011216E-01 -0.2035625E+00
 -0.1078190E+01 -0.1094700E+02 -0.2310450E+00  0.2068755E+00  0.1669630E+01  0.2041297E-01 -0.2058659E+00
  0.1311740E-06 -0.1100000E+02 -0.2310450E+00  0.2079104E+00  0.1669610E+01  0.2051092E-01 -0.2068962E+00
  0.1078190E+01 -0.1094700E+02 -0.2310450E+00  0.2068757E+00  0.1669629E+01  0.2041291E-01 -0.2058662E+00
  0.2145990E+01 -0.1078860E+02 -0.2310450E+00  0.2045539E+00  0.1669278E+01  0.2011217E-01 -0.2035628E+00
  0.3193140E+01 -0.1052630E+02 -0.2310450E+00  0.1989399E+00  0.1669620E+01  0.1962796E-01 -0.1979692E+00
  0.4209520E+01 -0.1016270E+02 -0.2310450E+00  0.1920842E+00  0.1669609E+01  0.1894942E-01 -0.1911472E+00
  0.5185360E+01 -0.9701130E+01 -0.2310450E+00  0.1833152E+00  0.1669638E+01  0.1808971E-01 -0.1824204E+00
  0.6111270E+01 -0.9146160E+01 -0.2310450E+00  0.1734135E+00  0.1669274E+01  0.1704971E-01 -0.1725734E+00
  0.6978330E+01 -0.8503110E+01 -0.2310450E+00  0.1607197E+00  0.1669602E+01  0.1585414E-01 -0.1599358E+00
  0.7778180E+01 -0.7778170E+01 -0.2310450E+00  0.1470132E+00  0.1669604E+01  0.1450245E-01 -0.1462962E+00
  0.8503120E+01 -0.6978320E+01 -0.2310450E+00  0.1318461E+00  0.1669647E+01  0.1301181E-01 -0.1312025E+00
  0.9146170E+01 -0.6111270E+01 -0.2310450E+00  0.1158698E+00  0.1669264E+01  0.1139098E-01 -0.1153086E+00
  0.9701130E+01 -0.5185360E+01 -0.2310450E+00  0.9802873E-01  0.1669562E+01  0.9666160E-02 -0.9755100E-01
  0.1016270E+02 -0.4209520E+01 -0.2310450E+00  0.7956190E-01  0.1669582E+01  0.7846816E-02 -0.7917400E-01
  0.1052630E+02 -0.3193130E+01 -0.2310450E+00  0.6030310E-01  0.1669667E+01  0.5952529E-02 -0.6000859E-01
  0.1078860E+02 -0.2145990E+01 -0.2310450E+00  0.4068650E-01  0.1669207E+01  0.3997518E-02 -0.4048964E-01
  0.1094700E+02 -0.1078180E+01 -0.2310450E+00  0.2041381E-01  0.1669218E+01  0.2005923E-02 -0.2031501E-01
  0.1100000E+02  0.0000000E+00 -0.4105000E+00  0.4754772E-05 -0.6210358E+00 -0.3866943E-05  0.2766696E-05
  0.1094700E+02  0.1078190E+01 -0.4105000E+00  0.2053019E-01 -0.1473013E+01 -0.2004305E-02  0.2043212E-01
  0.1078860E+02  0.2145990E+01 -0.4105000E+00  0.4087412E-01 -0.1473099E+01 -0.3986936E-02  0.4067921E-01
  0.1052630E+02  0.3193130E+01 -0.4105000E+00  0.6065588E-01 -0.1472840E+01 -0.5932153E-02  0.6036510E-01
  0.1016270E+02  0.4209520E+01 -0.4105000E+00  0.8005702E-01 -0.1472994E+01 -0.7817319E-02  0.7967445E-01
  0.9701130E+01  0.5185360E+01 -0.4105000E+00  0.9858508E-01 -0.1472973E+01 -0.9628508E-02  0.9811375E-01
  0.9146170E+01  0.6111270E+01 -0.4105000E+00  0.1163933E+00 -0.1473156E+01 -0.1134660E-01  0.1158389E+00
  0.8503110E+01  0.6978330E+01 -0.4105000E+00  0.1326036E+00 -0.1472917E+01 -0.1295843E-01  0.1319689E+00
  0.7778170E+01  0.7778170E+01 -0.4105000E+00  0.1479233E+00 -0.1473013E+01 -0.1444136E-01  0.1472166E+00
  0.6978330E+01  0.8503110E+01 -0.4105000E+00  0.1616330E+00 -0.1472966E+01 -0.1578745E-01  0.1608601E+00
  0.6111270E+01  0.9146170E+01 -0.4105000E+00  0.1741948E+00 -0.1473167E+01 -0.1697948E-01  0.1733653E+00
  0.5185360E+01  0.9701130E+01 -0.4105000E+00  0.1843631E+00 -0.1472939E+01 -0.1801243E-01  0.1834810E+00
  0.4209520E+01  0.1016270E+02 -0.4105000E+00  0.1932727E+00 -0.1473020E+01 -0.1886741E-01  0.1923496E+00
  0.3193130E+01  0.1052630E+02 -0.4105000E+00  0.2000726E+00 -0.1472958E+01 -0.1954357E-01  0.1991158E+00
  0.2145990E+01  0.1078860E+02 -0.4105000E+00  0.2054750E+00 -0.1473170E+01 -0.2002801E-01  0.2044966E+00
  0.1078190E+01  0.1094700E+02 -0.4105000E+00  0.2080562E+00 -0.1472951E+01 -0.2032485E-01  0.2070611E+00
 -0.4808250E-06  0.1100000E+02 -0.4105000E+00  0.2091974E+00 -0.1473022E+01 -0.2042164E-01  0.2081982E+00
 -0.1078190E+01  0.1094700E+02 -0.4105000E+00  0.2080565E+00 -0.1472951E+01 -0.2032487E-01  0.2070613E+00
 -0.2145990E+01  0.1078860E+02 -0.4105000E+00  0.2054757E+00 -0.1473170E+01 -0.2002805E-01  0.2044973E+00
 -0.3193130E+01  0.1052630E+02 -0.4105000E+00  0.2000735E+00 -0.1472958E+01 -0.1954363E-01  0.1991166E+00
 -0.4209520E+01  0.1016270E+02 -0.4105000E+00  0.1932737E+00 -0.1473020E+01 -0.1886748E-01  0.1923506E+00
 -0.5185370E+01  0.9701130E+01 -0.4105000E+00  0.1843643E+00 -0.1472939E+01 -0.1801259E-01  0.1834822E+00
 -0.6111270E+01  0.9146160E+01 -0.4105000E+00  0.1741960E+00 -0.1473167E+01 -0.1697962E-01  0.1733665E+00
 -0.6978330E+01  0.8503120E+01 -0.4105000E+00  0.1616354E+00 -0.1472966E+01 -0.1578764E-01  0.1608626E+00
 -0.7778170E+01  0.7778170E+01 -0.4105000E+00  0.1479254E+00 -0.1473013E+01 -0.1444155E-01  0.1472187E+00