 VARIABLES="X" "Y" "Z" "abs(eta) (m)" "angle(phi) (rad)" "PRE1" "PRE2"
ZONE N=   3200 ,E =    3136 ,F=FEPOINT,ET=QUADRILATERAL
  0.1100000E+02  0.0000000E+00  0.0000000E+00  0.5941847E-01 -0.3092852E+01  0.5934791E-01  0.2894942E-02
  0.1094700E+02  0.1078190E+01  0.0000000E+00  0.6487971E-01  0.2891767E+01  0.6286555E-01 -0.1604054E-01
  0.1078860E+02  0.2145990E+01  0.0000000E+00  0.7499637E-01  0.2670206E+01  0.6681722E-01 -0.3405754E-01
  0.1052630E+02  0.3193130E+01  0.0000000E+00  0.8761123E-01  0.2516224E+01  0.7103057E-01 -0.5128727E-01
  0.1016270E+02  0.4209520E+01  0.0000000E+00  0.1009647E+00  0.2414155E+01  0.7540857E-01 -0.6713724E-01
  0.9701130E+01  0.5185360E+01  0.0000000E+00  0.1141542E+00  0.2345049E+01  0.7981452E-01 -0.8161382E-01
  0.9146170E+01  0.6111270E+01  0.0000000E+00  0.1264814E+00  0.2298131E+01  0.8409510E-01 -0.9447513E-01
  0.8503110E+01  0.6978330E+01  0.0000000E+00  0.1379766E+00  0.2263776E+01  0.8814394E-01 -0.1061517E+00
  0.7778170E+01  0.7778170E+01  0.0000000E+00  0.1478590E+00  0.2240435E+01  0.9177647E-01 -0.1159283E+00
  0.6978330E+01  0.8503110E+01  0.0000000E+00  0.1560743E+00  0.2224271E+01  0.9488522E-01 -0.1239193E+00
  0.6111270E+01  0.9146170E+01  0.0000000E+00  0.1623288E+00  0.2213925E+01  0.9734891E-01 -0.1298993E+00
  0.5185360E+01  0.9701130E+01  0.0000000E+00  0.1671281E+00  0.2206204E+01  0.9919150E-01 -0.1345096E+00
  0.4209520E+01  0.1016270E+02  0.0000000E+00  0.1697509E+00  0.2202461E+01  0.1002361E+00 -0.1369967E+00
  0.3193130E+01  0.1052630E+02  0.0000000E+00  0.1703350E+00  0.2201648E+01  0.1004692E+00 -0.1375498E+00
  0.2145990E+01  0.1078860E+02  0.0000000E+00  0.1686946E+00  0.2204280E+01  0.9985981E-01 -0.1359628E+00
  0.1078190E+01  0.1094700E+02  0.0000000E+00  0.1655182E+00  0.2208605E+01  0.9855552E-01 -0.1329778E+00
 -0.4808250E-06  0.1100000E+02  0.0000000E+00  0.1602082E+00  0.2217053E+01  0.9647769E-01 -0.1279012E+00
 -0.1078190E+01  0.1094700E+02  0.0000000E+00  0.1530107E+00  0.2229995E+01  0.9371652E-01 -0.1209525E+00
 -0.2145990E+01  0.1078860E+02  0.0000000E+00  0.1438828E+00  0.2249669E+01  0.9034635E-01 -0.1119812E+00
 -0.3193130E+01  0.1052630E+02  0.0000000E+00  0.1335713E+00  0.2275815E+01  0.8656063E-01 -0.1017279E+00
 -0.4209520E+01  0.1016270E+02  0.0000000E+00  0.1217895E+00  0.2314111E+01  0.8241890E-01 -0.8966498E-01
 -0.5185370E+01  0.9701130E+01  0.0000000E+00  0.1089747E+00  0.2369439E+01  0.7807058E-01 -0.7602942E-01
 -0.6111270E+01  0.9146160E+01  0.0000000E+00  0.9548435E-01  0.2451740E+01  0.7365090E-01 -0.6076847E-01
 -0.6978330E+01  0.8503120E+01  0.0000000E+00  0.8237614E-01  0.2570421E+01  0.6930045E-01 -0.4453400E-01
 -0.7778170E+01  0.7778170E+01  0.0000000E+00  0.7057583E-01  0.2747964E+01  0.6517844E-01 -0.2706878E-01
 -0.8503120E+01  0.6978330E+01  0.0000000E+00  0.6201512E-01  0.3002291E+01  0.6141440E-01 -0.8610877E-02
 -0.9146170E+01  0.6111270E+01  0.0000000E+00  0.5911342E-01 -0.2958464E+01  0.5812497E-01  0.1076496E-01
 -0.9701130E+01  0.5185360E+01  0.0000000E+00  0.6321976E-01 -0.2636492E+01  0.5532525E-01  0.3059174E-01
 -0.1016270E+02  0.4209520E+01  0.0000000E+00  0.7354456E-01 -0.2379030E+01  0.5317774E-01  0.5080286E-01
 -0.1052630E+02  0.3193130E+01  0.0000000E+00  0.8799605E-01 -0.2199120E+01  0.5172315E-01  0.7119004E-01
 -0.1078860E+02  0.2145990E+01  0.0000000E+00  0.1048137E+00 -0.2078833E+01  0.5098795E-01  0.9157582E-01
 -0.1094700E+02  0.1078190E+01  0.0000000E+00  0.1227926E+00 -0.1997859E+01  0.5086062E-01  0.1117641E+00
 -0.1100000E+02 -0.9616510E-06  0.0000000E+00  0.1410889E+00 -0.1943779E+01  0.5141211E-01  0.1313883E+00
 -0.1094700E+02 -0.1078190E+01  0.0000000E+00  0.1592558E+00 -0.1907241E+01  0.5257566E-01  0.1503271E+00
 -0.1078860E+02 -0.2146000E+01  0.0000000E+00  0.1768816E+00 -0.1882674E+01  0.5427544E-01  0.1683487E+00
 -0.1052630E+02 -0.3193130E+01  0.0000000E+00  0.1939481E+00 -0.1865566E+01  0.5634566E-01  0.1855830E+00
 -0.1016270E+02 -0.4209520E+01  0.0000000E+00  0.2098254E+00 -0.1854486E+01  0.5873013E-01  0.2014385E+00
 -0.9701130E+01 -0.5185360E+01  0.0000000E+00  0.2244539E+00 -0.1847437E+01  0.6130405E-01  0.2159198E+00
 -0.9146160E+01 -0.6111270E+01  0.0000000E+00  0.2375531E+00 -0.1843309E+01  0.6393790E-01  0.2287869E+00
 -0.8503110E+01 -0.6978330E+01  0.0000000E+00  0.2494980E+00 -0.1840656E+01  0.6651510E-01  0.2404682E+00
 -0.7778170E+01 -0.7778180E+01  0.0000000E+00  0.2595596E+00 -0.1839445E+01  0.6889471E-01  0.2502493E+00
 -0.6978330E+01 -0.8503110E+01  0.0000000E+00  0.2678193E+00 -0.1839002E+01  0.7097266E-01  0.2582442E+00
 -0.6111270E+01 -0.9146170E+01  0.0000000E+00  0.2740325E+00 -0.1839101E+01  0.7264517E-01  0.2642281E+00
 -0.5185360E+01 -0.9701130E+01  0.0000000E+00  0.2788154E+00 -0.1839095E+01  0.7391151E-01  0.2688403E+00
 -0.4209510E+01 -0.1016270E+02  0.0000000E+00  0.2814066E+00 -0.1839228E+01  0.7463452E-01  0.2713289E+00
 -0.3193130E+01 -0.1052630E+02  0.0000000E+00  0.2819825E+00 -0.1839253E+01  0.7479411E-01  0.2718823E+00
 -0.2145990E+01 -0.1078860E+02  0.0000000E+00  0.2803391E+00 -0.1839297E+01  0.7437017E-01  0.2702945E+00
 -0.1078190E+01 -0.1094700E+02  0.0000000E+00  0.2772213E+00 -0.1839035E+01  0.7347298E-01  0.2673076E+00
  0.1311740E-06 -0.1100000E+02  0.0000000E+00  0.2719475E+00 -0.1838953E+01  0.7205384E-01  0.2622283E+00
  0.1078190E+01 -0.1094700E+02  0.0000000E+00  0.2647493E+00 -0.1839116E+01  0.7018813E-01  0.2552760E+00
  0.2145990E+01 -0.1078860E+02  0.0000000E+00  0.2555020E+00 -0.1839988E+01  0.6795122E-01  0.2463005E+00
  0.3193140E+01 -0.1052630E+02  0.0000000E+00  0.2449600E+00 -0.1841455E+01  0.6549407E-01  0.2360422E+00
  0.4209520E+01 -0.1016270E+02  0.0000000E+00  0.2326365E+00 -0.1844543E+01  0.6289112E-01  0.2239743E+00
  0.5185360E+01 -0.9701130E+01  0.0000000E+00  0.2187983E+00 -0.1849867E+01  0.6027079E-01  0.2103334E+00
  0.6111270E+01 -0.9146160E+01  0.0000000E+00  0.2034388E+00 -0.1858674E+01  0.5775988E-01  0.1950670E+00
  0.6978330E+01 -0.8503110E+01  0.0000000E+00  0.1872290E+00 -0.1871506E+01  0.5545681E-01  0.1788274E+00
  0.7778180E+01 -0.7778170E+01  0.0000000E+00  0.1700017E+00 -0.1891060E+01  0.5351935E-01  0.1613575E+00
  0.8503120E+01 -0.6978320E+01  0.0000000E+00  0.1520811E+00 -0.1920130E+01  0.5205314E-01  0.1428955E+00
  0.9146170E+01 -0.6111270E+01  0.0000000E+00  0.1336916E+00 -0.1963464E+01  0.5115763E-01  0.1235166E+00
  0.9701130E+01 -0.5185360E+01  0.0000000E+00  0.1154685E+00 -0.2026455E+01  0.5081233E-01  0.1036874E+00
  0.1016270E+02 -0.4209520E+01  0.0000000E+00  0.9790687E-01 -0.2120655E+01  0.5116288E-01  0.8347524E-01
  0.1052630E+02 -0.3193130E+01  0.0000000E+00  0.8189957E-01 -0.2262277E+01  0.5222557E-01  0.6308747E-01
  0.1078860E+02 -0.2145990E+01  0.0000000E+00  0.6884802E-01 -0.2472538E+01  0.5400499E-01  0.4270259E-01
  0.1094700E+02 -0.1078180E+01  0.0000000E+00  0.6069645E-01 -0.2761552E+01  0.5636572E-01  0.2251586E-01
  0.1100000E+02  0.0000000E+00 -0.2568960E-01  0.5937653E-01 -0.3092956E+01  0.5930632E-01  0.2886715E-02
  0.1094700E+02  0.1078190E+01 -0.2568960E-01  0.6483611E-01  0.2891621E+01  0.6282096E-01 -0.1603895E-01
  0.1078860E+02  0.2145990E+01 -0.2568960E-01  0.7495001E-01  0.2670011E+01  0.6676928E-01 -0.3404948E-01
  0.1052630E+02  0.3193130E+01 -0.2568960E-01  0.8755630E-01  0.2516110E+01  0.7098022E-01 -0.5126319E-01
  0.1016270E+02  0.4209520E+01 -0.2568960E-01  0.1009018E+00  0.2414067E+01  0.7535572E-01 -0.6710212E-01
  0.9701130E+01  0.5185360E+01 -0.2568960E-01  0.1140855E+00  0.2344952E+01  0.7975856E-01 -0.8157243E-01
  0.9146170E+01  0.6111270E+01 -0.2568960E-01  0.1264116E+00  0.2298008E+01  0.8403710E-01 -0.9443343E-01
  0.8503110E+01  0.6978330E+01 -0.2568960E-01  0.1378931E+00  0.2263696E+01  0.8808208E-01 -0.1060946E+00
  0.7778170E+01  0.7778170E+01 -0.2568960E-01  0.1477672E+00  0.2240371E+01  0.9171212E-01 -0.1158621E+00
  0.6978330E+01  0.8503110E+01 -0.2568960E-01  0.1559807E+00  0.2224199E+01  0.9481940E-01 -0.1238518E+00
  0.6111270E+01  0.9146170E+01 -0.2568960E-01  0.1622398E+00  0.2213827E+01  0.9728283E-01 -0.1298377E+00
  0.5185360E+01  0.9701130E+01 -0.2568960E-01  0.1670274E+00  0.2206136E+01  0.9912258E-01 -0.1344354E+00
  0.4209520E+01  0.1016270E+02 -0.2568960E-01  0.1696456E+00  0.2202401E+01  0.1001657E+00 -0.1369177E+00
  0.3193130E+01  0.1052630E+02 -0.2568960E-01  0.1702323E+00  0.2201580E+01  0.1003992E+00 -0.1374737E+00
  0.2145990E+01  0.1078860E+02 -0.2568960E-01  0.1686024E+00  0.2204187E+01  0.9979255E-01 -0.1358978E+00
  0.1078190E+01  0.1094700E+02 -0.2568960E-01  0.1654188E+00  0.2208534E+01  0.9848700E-01 -0.1329048E+00
 -0.4808250E-06  0.1100000E+02 -0.2568960E-01  0.1601088E+00  0.2216991E+01  0.9640991E-01 -0.1278278E+00
 -0.1078190E+01  0.1094700E+02 -0.2568960E-01  0.1529185E+00  0.2229921E+01  0.9365118E-01 -0.1208864E+00
 -0.2145990E+01  0.1078860E+02 -0.2568960E-01  0.1438037E+00  0.2249558E+01  0.9028421E-01 -0.1119297E+00
 -0.3193130E+01  0.1052630E+02 -0.2568960E-01  0.1334915E+00  0.2275733E+01  0.8650064E-01 -0.1016741E+00
 -0.4209520E+01  0.1016270E+02 -0.2568960E-01  0.1217138E+00  0.2314036E+01  0.8236089E-01 -0.8961541E-01
 -0.5185370E+01  0.9701130E+01 -0.2568960E-01  0.1089082E+00  0.2369343E+01  0.7801560E-01 -0.7599059E-01
 -0.6111270E+01  0.9146160E+01 -0.2568960E-01  0.9542975E-01  0.2451578E+01  0.7359891E-01 -0.6074569E-01
 -0.6978330E+01  0.8503120E+01 -0.2568960E-01  0.8232518E-01  0.2570294E+01  0.6925192E-01 -0.4451524E-01
 -0.7778170E+01  0.7778170E+01 -0.2568960E-01  0.7052963E-01  0.2747852E+01  0.6513272E-01 -0.2705840E-01
 -0.8503120E+01  0.6978330E+01 -0.2568960E-01  0.6197232E-01  0.3002165E+01  0.6137092E-01 -0.8612689E-02
 -0.9146170E+01  0.6111270E+01 -0.2568960E-01  0.5906856E-01 -0.2958614E+01  0.5808248E-01  0.1074805E-01
 -0.9701130E+01  0.5185360E+01 -0.2568960E-01  0.6317247E-01 -0.2636560E+01  0.5528595E-01  0.3056510E-01
 -0.1016270E+02  0.4209520E+01 -0.2568960E-01  0.7349124E-01 -0.2379053E+01  0.5314033E-01  0.5076483E-01
 -0.1052630E+02  0.3193130E+01 -0.2568960E-01  0.8793392E-01 -0.2199113E+01  0.5168616E-01  0.7114011E-01
 -0.1078860E+02  0.2145990E+01 -0.2568960E-01  0.1047413E+00 -0.2078803E+01  0.5094999E-01  0.9151414E-01
 -0.1094700E+02  0.1078190E+01 -0.2568960E-01  0.1227086E+00 -0.1997845E+01  0.5082425E-01  0.1116884E+00
 -0.1100000E+02 -0.9616510E-06 -0.2568960E-01  0.1409937E+00 -0.1943769E+01  0.5137597E-01  0.1313002E+00
 -0.1094700E+02 -0.1078190E+01 -0.2568960E-01  0.1591511E+00 -0.1907223E+01  0.5253834E-01  0.1502292E+00
 -0.1078860E+02 -0.2146000E+01 -0.2568960E-01  0.1767701E+00 -0.1882642E+01  0.5423580E-01  0.1682443E+00
 -0.1052630E+02 -0.3193130E+01 -0.2568960E-01  0.1938215E+00 -0.1865548E+01  0.5630555E-01  0.1854628E+00
 -0.1016270E+02 -0.4209520E+01 -0.2568960E-01  0.2096873E+00 -0.1854472E+01  0.5868857E-01  0.2013068E+00
 -0.9701130E+01 -0.5185360E+01 -0.2568960E-01  0.2243097E+00 -0.1847419E+01  0.6126084E-01  0.2157822E+00
 -0.9146160E+01 -0.6111270E+01 -0.2568960E-01  0.2374083E+00 -0.1843282E+01  0.6389292E-01  0.2286491E+00
 -0.8503110E+01 -0.6978330E+01 -0.2568960E-01  0.2493377E+00 -0.1840637E+01  0.6646798E-01  0.2403150E+00
 -0.7778170E+01 -0.7778180E+01 -0.2568960E-01  0.2593904E+00 -0.1839430E+01  0.6884591E-01  0.2500872E+00
 -0.6978330E+01 -0.8503110E+01 -0.2568960E-01  0.2676486E+00 -0.1838984E+01  0.7092267E-01  0.2580809E+00
 -0.6111270E+01 -0.9146170E+01 -0.2568960E-01  0.2738669E+00 -0.1839078E+01  0.7259528E-01  0.2640700E+00
 -0.5185360E+01 -0.9701130E+01 -0.2568960E-01  0.2786370E+00 -0.1839078E+01  0.7385962E-01  0.2686695E+00
 -0.4209510E+01 -0.1016270E+02 -0.2568960E-01  0.2812239E+00 -0.1839211E+01  0.7458158E-01  0.2711540E+00
 -0.3193130E+01 -0.1052630E+02 -0.2568960E-01  0.2818027E+00 -0.1839236E+01  0.7474180E-01  0.2717102E+00
 -0.2145990E+01 -0.1078860E+02 -0.2568960E-01  0.2801699E+00 -0.1839276E+01  0.7431953E-01  0.2701329E+00
 -0.1078190E+01 -0.1094700E+02 -0.2568960E-01  0.2770443E+00 -0.1839018E+01  0.7342149E-01  0.2671382E+00
  0.1311740E-06 -0.1100000E+02 -0.2568960E-01  0.2717704E+00 -0.1838937E+01  0.7200269E-01  0.2620587E+00
  0.1078190E+01 -0.1094700E+02 -0.2568960E-01  0.2645795E+00 -0.1839099E+01  0.7013867E-01  0.2551135E+00
  0.2145990E+01 -0.1078860E+02 -0.2568960E-01  0.2553470E+00 -0.1839963E+01  0.6790402E-01  0.2461527E+00
  0.3193140E+01 -0.1052630E+02 -0.2568960E-01  0.2448027E+00 -0.1841437E+01  0.6544771E-01  0.2358919E+00
  0.4209520E+01 -0.1016270E+02 -0.2568960E-01  0.2324839E+00 -0.1844527E+01  0.6284629E-01  0.2238283E+00
  0.5185360E+01 -0.9701130E+01 -0.2568960E-01  0.2186566E+00 -0.1849849E+01  0.6022798E-01  0.2101983E+00
  0.6111270E+01 -0.9146160E+01 -0.2568960E-01  0.2033128E+00 -0.1858644E+01  0.5771823E-01  0.1949479E+00
  0.6978330E+01 -0.8503110E+01 -0.2568960E-01  0.1871075E+00 -0.1871487E+01  0.5541752E-01  0.1787124E+00
  0.7778180E+01 -0.7778170E+01 -0.2568960E-01  0.1698886E+00 -0.1891046E+01  0.5348156E-01  0.1612509E+00
  0.8503120E+01 -0.6978320E+01 -0.2568960E-01  0.1519797E+00 -0.1920113E+01  0.5201592E-01  0.1428012E+00
  0.9146170E+01 -0.6111270E+01 -0.2568960E-01  0.1336038E+00 -0.1963428E+01  0.5111966E-01  0.1234372E+00
  0.9701130E+01 -0.5185360E+01 -0.2568960E-01  0.1153901E+00 -0.2026438E+01  0.5077614E-01  0.1036179E+00
  0.1016270E+02 -0.4209520E+01 -0.2568960E-01  0.9783817E-01 -0.2120652E+01  0.5112672E-01  0.8341682E-01
  0.1052630E+02 -0.3193130E+01 -0.2568960E-01  0.8184011E-01 -0.2262287E+01  0.5218833E-01  0.6304111E-01
  0.1078860E+02 -0.2145990E+01 -0.2568960E-01  0.6879512E-01 -0.2472571E+01  0.5396489E-01  0.4266801E-01
  0.1094700E+02 -0.1078180E+01 -0.2568960E-01  0.6065159E-01 -0.2761621E+01  0.5632562E-01  0.2249532E-01
  0.1100000E+02  0.0000000E+00 -0.1027320E+00  0.5924733E-01 -0.3093122E+01  0.5917775E-01  0.2870656E-02
  0.1094700E+02  0.1078190E+01 -0.1027320E+00  0.6470054E-01  0.2891306E+01  0.6268457E-01 -0.1602512E-01
  0.1078860E+02  0.2145990E+01 -0.1027320E+00  0.7480529E-01  0.2669503E+01  0.6662308E-01 -0.3401759E-01
  0.1052630E+02  0.3193130E+01 -0.1027320E+00  0.8738494E-01  0.2515870E+01  0.7082897E-01 -0.5117992E-01
  0.1016270E+02  0.4209520E+01 -0.1027320E+00  0.1007010E+00  0.2413941E+01  0.7519730E-01 -0.6697804E-01
  0.9701130E+01  0.5185360E+01 -0.1027320E+00  0.1138690E+00  0.2344771E+01  0.7959251E-01 -0.8143203E-01
  0.9146170E+01  0.6111270E+01 -0.1027320E+00  0.1261943E+00  0.2297718E+01  0.8386529E-01 -0.9429540E-01
  0.8503110E+01  0.6978330E+01 -0.1027320E+00  0.1376318E+00  0.2263563E+01  0.8790112E-01 -0.1059052E+00
  0.7778170E+01  0.7778170E+01 -0.1027320E+00  0.1474760E+00  0.2240301E+01  0.9152319E-01 -0.1156402E+00
  0.6978330E+01  0.8503110E+01 -0.1027320E+00  0.1556867E+00  0.2224090E+01  0.9462723E-01 -0.1236286E+00
  0.6111270E+01  0.9146170E+01 -0.1027320E+00  0.1619646E+00  0.2213631E+01  0.9709232E-01 -0.1296364E+00
  0.5185360E+01  0.9701130E+01 -0.1027320E+00  0.1667124E+00  0.2206042E+01  0.9892293E-01 -0.1341911E+00
  0.4209520E+01  0.1016270E+02 -0.1027320E+00  0.1693113E+00  0.2202350E+01  0.9996130E-01 -0.1366530E+00
  0.3193130E+01  0.1052630E+02 -0.1027320E+00  0.1699116E+00  0.2201488E+01  0.1001975E+00 -0.1372239E+00
  0.2145990E+01  0.1078860E+02 -0.1027320E+00  0.1683163E+00  0.2204003E+01  0.9959824E-01 -0.1356855E+00
  0.1078190E+01  0.1094700E+02 -0.1027320E+00  0.1651075E+00  0.2208438E+01  0.9828892E-01 -0.1326642E+00
 -0.4808250E-06  0.1100000E+02 -0.1027320E+00  0.1597929E+00  0.2216934E+01  0.9621244E-01 -0.1275811E+00
 -0.1078190E+01  0.1094700E+02 -0.1027320E+00  0.1526295E+00  0.2229809E+01  0.9346063E-01 -0.1206684E+00
 -0.2145990E+01  0.1078860E+02 -0.1027320E+00  0.1435588E+00  0.2249319E+01  0.9010372E-01 -0.1117607E+00
 -0.3193130E+01  0.1052630E+02 -0.1027320E+00  0.1332398E+00  0.2275591E+01  0.8632306E-01 -0.1014947E+00
 -0.4209520E+01  0.1016270E+02 -0.1027320E+00  0.1214733E+00  0.2313942E+01  0.8218972E-01 -0.8944613E-01
 -0.5185370E+01  0.9701130E+01 -0.1027320E+00  0.1086995E+00  0.2369159E+01  0.7785213E-01 -0.7585926E-01
 -0.6111270E+01  0.9146160E+01 -0.1027320E+00  0.9525891E-01  0.2451172E+01  0.7344253E-01 -0.6066674E-01
 -0.6978330E+01  0.8503120E+01 -0.1027320E+00  0.8216356E-01  0.2570025E+01  0.6910400E-01 -0.4444646E-01
 -0.7778170E+01  0.7778170E+01 -0.1027320E+00  0.7038388E-01  0.2747665E+01  0.6499311E-01 -0.2701458E-01
 -0.8503120E+01  0.6978330E+01 -0.1027320E+00  0.6183879E-01  0.3001892E+01  0.6123634E-01 -0.8610821E-02
 -0.9146170E+01  0.6111270E+01 -0.1027320E+00  0.5892936E-01 -0.2958973E+01  0.5794945E-01  0.1070191E-01
 -0.9701130E+01  0.5185360E+01 -0.1027320E+00  0.6302803E-01 -0.2636662E+01  0.5516264E-01  0.3048959E-01
 -0.1016270E+02  0.4209520E+01 -0.1027320E+00  0.7332999E-01 -0.2379056E+01  0.5302387E-01  0.5065329E-01
 -0.1052630E+02  0.3193130E+01 -0.1027320E+00  0.8774353E-01 -0.2199049E+01  0.5156965E-01  0.7098942E-01
 -0.1078860E+02  0.2145990E+01 -0.1027320E+00  0.1045198E+00 -0.2078667E+01  0.5082982E-01  0.9132755E-01
 -0.1094700E+02  0.1078190E+01 -0.1027320E+00  0.1224515E+00 -0.1997777E+01  0.5071016E-01  0.1114578E+00
 -0.1100000E+02 -0.9616510E-06 -0.1027320E+00  0.1406992E+00 -0.1943732E+01  0.5126386E-01  0.1310278E+00
 -0.1094700E+02 -0.1078190E+01 -0.1027320E+00  0.1588279E+00 -0.1907164E+01  0.5242286E-01  0.1499271E+00
 -0.1078860E+02 -0.2146000E+01 -0.1027320E+00  0.1764281E+00 -0.1882546E+01  0.5411475E-01  0.1679240E+00
 -0.1052630E+02 -0.3193130E+01 -0.1027320E+00  0.1934304E+00 -0.1865507E+01  0.5618441E-01  0.1850909E+00
 -0.1016270E+02 -0.4209520E+01 -0.1027320E+00  0.2092569E+00 -0.1854456E+01  0.5856492E-01  0.2008945E+00
 -0.9701130E+01 -0.5185360E+01 -0.1027320E+00  0.2238625E+00 -0.1847391E+01  0.6113278E-01  0.2153536E+00
 -0.9146160E+01 -0.6111270E+01 -0.1027320E+00  0.2369619E+00 -0.1843234E+01  0.6376168E-01  0.2282223E+00
 -0.8503110E+01 -0.6978330E+01 -0.1027320E+00  0.2488411E+00 -0.1840621E+01  0.6633177E-01  0.2398374E+00
 -0.7778170E+01 -0.7778180E+01 -0.1027320E+00  0.2588610E+00 -0.1839427E+01  0.6870478E-01  0.2495770E+00
 -0.6978330E+01 -0.8503110E+01 -0.1027320E+00  0.2671177E+00 -0.1838976E+01  0.7077990E-01  0.2575696E+00
 -0.6111270E+01 -0.9146170E+01 -0.1027320E+00  0.2733575E+00 -0.1839054E+01  0.7245398E-01  0.2635806E+00
 -0.5185360E+01 -0.9701130E+01 -0.1027320E+00  0.2780845E+00 -0.1839073E+01  0.7371198E-01  0.2681371E+00
 -0.4209510E+01 -0.1016270E+02 -0.1027320E+00  0.2806503E+00 -0.1839216E+01  0.7443062E-01  0.2706005E+00
 -0.3193130E+01 -0.1052630E+02 -0.1027320E+00  0.2812439E+00 -0.1839233E+01  0.7459278E-01  0.2711717E+00
 -0.2145990E+01 -0.1078860E+02 -0.1027320E+00  0.2796491E+00 -0.1839257E+01  0.7417624E-01  0.2696322E+00
 -0.1078190E+01 -0.1094700E+02 -0.1027320E+00  0.2764956E+00 -0.1839013E+01  0.7327477E-01  0.2666095E+00
  0.1311740E-06 -0.1100000E+02 -0.1027320E+00  0.2712161E+00 -0.1838939E+01  0.7185630E-01  0.2615241E+00
  0.1078190E+01 -0.1094700E+02 -0.1027320E+00  0.2640539E+00 -0.1839088E+01  0.6999665E-01  0.2546074E+00
  0.2145990E+01 -0.1078860E+02 -0.1027320E+00  0.2548698E+00 -0.1839926E+01  0.6776809E-01  0.2456952E+00
  0.3193140E+01 -0.1052630E+02 -0.1027320E+00  0.2443163E+00 -0.1841420E+01  0.6531359E-01  0.2354242E+00
  0.4209520E+01 -0.1016270E+02 -0.1027320E+00  0.2320082E+00 -0.1844518E+01  0.6271569E-01  0.2233709E+00
  0.5185360E+01 -0.9701130E+01 -0.1027320E+00  0.2182183E+00 -0.1849820E+01  0.6010109E-01  0.2097786E+00
  0.6111270E+01 -0.9146160E+01 -0.1027320E+00  0.2029255E+00 -0.1858569E+01  0.5759378E-01  0.1945808E+00
  0.6978330E+01 -0.8503110E+01 -0.1027320E+00  0.1867310E+00 -0.1871442E+01  0.5529801E-01  0.1783553E+00
  0.7778180E+01 -0.7778170E+01 -0.1027320E+00  0.1695371E+00 -0.1891017E+01  0.5336628E-01  0.1609188E+00
  0.8503120E+01 -0.6978320E+01 -0.1027320E+00  0.1516677E+00 -0.1920054E+01  0.5190076E-01  0.1425110E+00
  0.9146170E+01 -0.6111270E+01 -0.1027320E+00  0.1333348E+00 -0.1963298E+01  0.5100073E-01  0.1231953E+00
  0.9701130E+01 -0.5185360E+01 -0.1027320E+00  0.1151488E+00 -0.2026362E+01  0.5066208E-01  0.1034051E+00
  0.1016270E+02 -0.4209520E+01 -0.1027320E+00  0.9762901E-01 -0.2120617E+01  0.5101451E-01  0.8324027E-01
  0.1052630E+02 -0.3193130E+01 -0.1027320E+00  0.8165921E-01 -0.2262252E+01  0.5207076E-01  0.6290360E-01
  0.1078860E+02 -0.2145990E+01 -0.1027320E+00  0.6863323E-01 -0.2472595E+01  0.5383891E-01  0.4256632E-01
  0.1094700E+02 -0.1078180E+01 -0.1027320E+00  0.6051379E-01 -0.2761736E+01  0.5620023E-01  0.2243776E-01
  0.1100000E+02  0.0000000E+00 -0.2310450E+00  0.5903709E-01 -0.3093455E+01  0.5896870E-01  0.2840801E-02
  0.1094700E+02  0.1078190E+01 -0.2310450E+00  0.6448008E-01  0.2890770E+01  0.6246242E-01 -0.1600399E-01
  0.1078860E+02  0.2145990E+01 -0.2310450E+00  0.7457033E-01  0.2668630E+01  0.6638420E-01 -0.3396870E-01
  0.1052630E+02  0.3193130E+01 -0.2310450E+00  0.8710282E-01  0.2515486E+01  0.7058074E-01 -0.5104173E-01
  0.1016270E+02  0.4209520E+01 -0.2310450E+00  0.1003744E+00  0.2413692E+01  0.7493677E-01 -0.6677949E-01
  0.9701130E+01  0.5185360E+01 -0.2310450E+00  0.1135136E+00  0.2344469E+01  0.7931957E-01 -0.8120191E-01
  0.9146170E+01  0.6111270E+01 -0.2310450E+00  0.1258399E+00  0.2297212E+01  0.8358214E-01 -0.9407284E-01
  0.8503110E+01  0.6978330E+01 -0.2310450E+00  0.1372011E+00  0.2263336E+01  0.8760208E-01 -0.1055937E+00
  0.7778170E+01  0.7778170E+01 -0.2310450E+00  0.1470011E+00  0.2240149E+01  0.9121104E-01 -0.1152818E+00
  0.6978330E+01  0.8503110E+01 -0.2310450E+00  0.1552031E+00  0.2223894E+01  0.9430912E-01 -0.1232632E+00
  0.6111270E+01  0.9146170E+01 -0.2310450E+00  0.1615147E+00  0.2213267E+01  0.9677563E-01 -0.1293116E+00
  0.5185360E+01  0.9701130E+01 -0.2310450E+00  0.1661926E+00  0.2205865E+01  0.9859096E-01 -0.1337901E+00
  0.4209520E+01  0.1016270E+02 -0.2310450E+00  0.1687661E+00  0.2202226E+01  0.9962250E-01 -0.1362254E+00
  0.3193130E+01  0.1052630E+02 -0.2310450E+00  0.1693822E+00  0.2201318E+01  0.9986208E-01 -0.1368134E+00
  0.2145990E+01  0.1078860E+02 -0.2310450E+00  0.1678493E+00  0.2203660E+01  0.9927554E-01 -0.1353431E+00
  0.1078190E+01  0.1094700E+02 -0.2310450E+00  0.1645935E+00  0.2208261E+01  0.9795948E-01 -0.1322686E+00
 -0.4808250E-06  0.1100000E+02 -0.2310450E+00  0.1592786E+00  0.2216797E+01  0.9588536E-01 -0.1271836E+00
 -0.1078190E+01  0.1094700E+02 -0.2310450E+00  0.1521527E+00  0.2229610E+01  0.9314474E-01 -0.1203101E+00
 -0.2145990E+01  0.1078860E+02 -0.2310450E+00  0.1431584E+00  0.2248892E+01  0.8980483E-01 -0.1114873E+00
 -0.3193130E+01  0.1052630E+02 -0.2310450E+00  0.1328254E+00  0.2275346E+01  0.8602974E-01 -0.1012002E+00
 -0.4209520E+01  0.1016270E+02 -0.2310450E+00  0.1210816E+00  0.2313745E+01  0.8190709E-01 -0.8917385E-01
 -0.5185370E+01  0.9701130E+01 -0.2310450E+00  0.1083556E+00  0.2368853E+01  0.7758269E-01 -0.7564303E-01
 -0.6111270E+01  0.9146160E+01 -0.2310450E+00  0.9498125E-01  0.2450469E+01  0.7318596E-01 -0.6054134E-01
 -0.6978330E+01  0.8503120E+01 -0.2310450E+00  0.8190022E-01  0.2569577E+01  0.6886265E-01 -0.4433488E-01
 -0.7778170E+01  0.7778170E+01 -0.2310450E+00  0.7014745E-01  0.2747311E+01  0.6476523E-01 -0.2694678E-01
 -0.8503120E+01  0.6978330E+01 -0.2310450E+00  0.6162164E-01  0.3001448E+01  0.6101749E-01 -0.8607698E-02
 -0.9146170E+01  0.6111270E+01 -0.2310450E+00  0.5870287E-01 -0.2959628E+01  0.5773369E-01  0.1062299E-01
 -0.9701130E+01  0.5185360E+01 -0.2310450E+00  0.6279271E-01 -0.2636894E+01  0.5496373E-01  0.3036301E-01
 -0.1016270E+02  0.4209520E+01 -0.2310450E+00  0.7306480E-01 -0.2379110E+01  0.5283485E-01  0.5046725E-01
 -0.1052630E+02  0.3193130E+01 -0.2310450E+00  0.8743183E-01 -0.2198987E+01  0.5138211E-01  0.7074040E-01
 -0.1078860E+02  0.2145990E+01 -0.2310450E+00  0.1041555E+00 -0.2078475E+01  0.5063523E-01  0.9101890E-01
 -0.1094700E+02  0.1078190E+01 -0.2310450E+00  0.1220265E+00 -0.1997705E+01  0.5052620E-01  0.1110746E+00
 -0.1100000E+02 -0.9616510E-06 -0.2310450E+00  0.1402154E+00 -0.1943691E+01  0.5108221E-01  0.1305793E+00
 -0.1094700E+02 -0.1078190E+01 -0.2310450E+00  0.1582945E+00 -0.1907090E+01  0.5223576E-01  0.1494275E+00
 -0.1078860E+02 -0.2146000E+01 -0.2310450E+00  0.1758654E+00 -0.1882395E+01  0.5391694E-01  0.1673965E+00
 -0.1052630E+02 -0.3193130E+01 -0.2310450E+00  0.1927829E+00 -0.1865454E+01  0.5598645E-01  0.1844743E+00
 -0.1016270E+02 -0.4209520E+01 -0.2310450E+00  0.2085499E+00 -0.1854431E+01  0.5836204E-01  0.2002172E+00
 -0.9701130E+01 -0.5185360E+01 -0.2310450E+00  0.2231237E+00 -0.1847353E+01  0.6092281E-01  0.2146452E+00
 -0.9146160E+01 -0.6111270E+01 -0.2310450E+00  0.2362289E+00 -0.1843147E+01  0.6354465E-01  0.2275218E+00
 -0.8503110E+01 -0.6978330E+01 -0.2310450E+00  0.2480194E+00 -0.1840594E+01  0.6610614E-01  0.2390473E+00
 -0.7778170E+01 -0.7778180E+01 -0.2310450E+00  0.2579920E+00 -0.1839417E+01  0.6847161E-01  0.2487399E+00
 -0.6978330E+01 -0.8503110E+01 -0.2310450E+00  0.2662408E+00 -0.1838959E+01  0.7054324E-01  0.2567251E+00
 -0.6111270E+01 -0.9146170E+01 -0.2310450E+00  0.2725199E+00 -0.1839004E+01  0.7221878E-01  0.2627766E+00
 -0.5185360E+01 -0.9701130E+01 -0.2310450E+00  0.2771715E+00 -0.1839060E+01  0.7346636E-01  0.2672578E+00
 -0.4209510E+01 -0.1016270E+02 -0.2310450E+00  0.2797100E+00 -0.1839212E+01  0.7418018E-01  0.2696942E+00
 -0.3193130E+01 -0.1052630E+02 -0.2310450E+00  0.2803208E+00 -0.1839222E+01  0.7434494E-01  0.2702824E+00
 -0.2145990E+01 -0.1078860E+02 -0.2310450E+00  0.2787943E+00 -0.1839212E+01  0.7393731E-01  0.2688114E+00
 -0.1078190E+01 -0.1094700E+02 -0.2310450E+00  0.2755881E+00 -0.1839000E+01  0.7303081E-01  0.2657354E+00
  0.1311740E-06 -0.1100000E+02 -0.2310450E+00  0.2703066E+00 -0.1838932E+01  0.7161347E-01  0.2606476E+00
  0.1078190E+01 -0.1094700E+02 -0.2310450E+00  0.2631843E+00 -0.1839069E+01  0.6976122E-01  0.2537703E+00
  0.2145990E+01 -0.1078860E+02 -0.2310450E+00  0.2540855E+00 -0.1839858E+01  0.6754284E-01  0.2449436E+00
  0.3193140E+01 -0.1052630E+02 -0.2310450E+00  0.2435122E+00 -0.1841391E+01  0.6509199E-01  0.2346512E+00
  0.4209520E+01 -0.1016270E+02 -0.2310450E+00  0.2312271E+00 -0.1844500E+01  0.6250051E-01  0.2226200E+00
  0.5185360E+01 -0.9701130E+01 -0.2310450E+00  0.2174930E+00 -0.1849778E+01  0.5989261E-01  0.2090839E+00
  0.6111270E+01 -0.9146160E+01 -0.2310450E+00  0.2022883E+00 -0.1858448E+01  0.5738942E-01  0.1939768E+00
  0.6978330E+01 -0.8503110E+01 -0.2310450E+00  0.1861098E+00 -0.1871385E+01  0.5510381E-01  0.1777651E+00
  0.7778180E+01 -0.7778170E+01 -0.2310450E+00  0.1689595E+00 -0.1890981E+01  0.5317869E-01  0.1603725E+00
  0.8503120E+01 -0.6978320E+01 -0.2310450E+00  0.1511514E+00 -0.1919984E+01  0.5171416E-01  0.1420295E+00
  0.9146170E+01 -0.6111270E+01 -0.2310450E+00  0.1328916E+00 -0.1963105E+01  0.5080752E-01  0.1227957E+00
  0.9701130E+01 -0.5185360E+01 -0.2310450E+00  0.1147521E+00 -0.2026273E+01  0.5047841E-01  0.1030532E+00
  0.1016270E+02 -0.4209520E+01 -0.2310450E+00  0.9728450E-01 -0.2120591E+01  0.5083233E-01  0.8294787E-01
  0.1052630E+02 -0.3193130E+01 -0.2310450E+00  0.8136199E-01 -0.2262262E+01  0.5188184E-01  0.6267415E-01
  0.1078860E+02 -0.2145990E+01 -0.2310450E+00  0.6836739E-01 -0.2472685E+01  0.5363419E-01  0.4239663E-01
  0.1094700E+02 -0.1078180E+01 -0.2310450E+00  0.6029009E-01 -0.2761959E+01  0.5599745E-01  0.2234233E-01
  0.1100000E+02  0.0000000E+00 -0.4105000E+00  0.5874143E-01 -0.3093961E+01  0.5867481E-01  0.2796927E-02
  0.1094700E+02  0.1078190E+01 -0.4105000E+00  0.6417008E-01  0.2890013E+01  0.6215002E-01 -0.1597416E-01
  0.1078860E+02  0.2145990E+01 -0.4105000E+00  0.7423531E-01  0.2667534E+01  0.6604885E-01 -0.3388851E-01
  0.1052630E+02  0.3193130E+01 -0.4105000E+00  0.8670688E-01  0.2514894E+01  0.7022981E-01 -0.5085134E-01
  0.1016270E+02  0.4209520E+01 -0.4105000E+00  0.9991713E-01  0.2413257E+01  0.7456646E-01 -0.6650770E-01
  0.9701130E+01  0.5185360E+01 -0.4105000E+00  0.1130131E+00  0.2343976E+01  0.7893001E-01 -0.8088271E-01
  0.9146170E+01  0.6111270E+01 -0.4105000E+00  0.1253252E+00  0.2296528E+01  0.8317613E-01 -0.9374500E-01
  0.8503110E+01  0.6978330E+01 -0.4105000E+00  0.1365951E+00  0.2262934E+01  0.8717286E-01 -0.1051623E+00
  0.7778170E+01  0.7778170E+01 -0.4105000E+00  0.1463378E+00  0.2239835E+01  0.9076341E-01 -0.1147900E+00
  0.6978330E+01  0.8503110E+01 -0.4105000E+00  0.1545220E+00  0.2223531E+01  0.9385066E-01 -0.1227562E+00
  0.6111270E+01  0.9146170E+01 -0.4105000E+00  0.1608602E+00  0.2212743E+01  0.9631597E-01 -0.1288381E+00
  0.5185360E+01  0.9701130E+01 -0.4105000E+00  0.1654614E+00  0.2205528E+01  0.9811226E-01 -0.1332346E+00
  0.4209520E+01  0.1016270E+02 -0.4105000E+00  0.1680043E+00  0.2201945E+01  0.9913471E-01 -0.1356383E+00
  0.3193130E+01  0.1052630E+02 -0.4105000E+00  0.1686375E+00  0.2200984E+01  0.9937754E-01 -0.1362450E+00
  0.2145990E+01  0.1078860E+02 -0.4105000E+00  0.1671691E+00  0.2203157E+01  0.9880538E-01 -0.1348443E+00
  0.1078190E+01  0.1094700E+02 -0.4105000E+00  0.1638708E+00  0.2207917E+01  0.9748410E-01 -0.1317213E+00
 -0.4808250E-06  0.1100000E+02 -0.4105000E+00  0.1585599E+00  0.2216505E+01  0.9541575E-01 -0.1266376E+00
 -0.1078190E+01  0.1094700E+02 -0.4105000E+00  0.1514825E+00  0.2229244E+01  0.9269068E-01 -0.1198140E+00
 -0.2145990E+01  0.1078860E+02 -0.4105000E+00  0.1425767E+00  0.2248294E+01  0.8937351E-01 -0.1110878E+00
 -0.3193130E+01  0.1052630E+02 -0.4105000E+00  0.1322421E+00  0.2274925E+01  0.8560953E-01 -0.1007918E+00
 -0.4209520E+01  0.1016270E+02 -0.4105000E+00  0.1205336E+00  0.2313376E+01  0.8150373E-01 -0.8880027E-01
 -0.5185370E+01  0.9701130E+01 -0.4105000E+00  0.1078726E+00  0.2368358E+01  0.7719961E-01 -0.7534406E-01
 -0.6111270E+01  0.9146160E+01 -0.4105000E+00  0.9458049E-01  0.2449562E+01  0.7282241E-01 -0.6035201E-01
 -0.6978330E+01  0.8503120E+01 -0.4105000E+00  0.8152882E-01  0.2568912E+01  0.6852102E-01 -0.4417938E-01
 -0.7778170E+01  0.7778170E+01 -0.4105000E+00  0.6981577E-01  0.2746747E+01  0.6444388E-01 -0.2685570E-01