 VARIABLES="X" "Y" "Z" "abs(eta) (m)" "angle(phi) (rad)" "PRE1" "PRE2"
ZONE N=   3200 ,E =    3136 ,F=FEPOINT,ET=QUADRILATERAL
  0.1100000E+02  0.0000000E+00  0.0000000E+00  0.4495423E+00 -0.1752349E+01  0.8116790E-01  0.4421539E+00
  0.1094700E+02  0.1078190E+01  0.0000000E+00  0.4430499E+00 -0.1750497E+01  0.7918865E-01  0.4359156E+00
  0.1078860E+02  0.2145990E+01  0.0000000E+00  0.4337397E+00 -0.1748029E+01  0.7647119E-01  0.4269453E+00
  0.1052630E+02  0.3193130E+01  0.0000000E+00  0.4219152E+00 -0.1745093E+01  0.7316644E-01  0.4155227E+00
  0.1016270E+02  0.4209520E+01  0.0000000E+00  0.4073624E+00 -0.1741927E+01  0.6937225E-01  0.4014120E+00
  0.9701130E+01  0.5185360E+01  0.0000000E+00  0.3897202E+00 -0.1739094E+01  0.6527963E-01  0.3842140E+00
  0.9146170E+01  0.6111270E+01  0.0000000E+00  0.3696848E+00 -0.1737211E+01  0.6123732E-01  0.3645776E+00
  0.8503110E+01  0.6978330E+01  0.0000000E+00  0.3475845E+00 -0.1736822E+01  0.5744331E-01  0.3428050E+00
  0.7778170E+01  0.7778170E+01  0.0000000E+00  0.3233434E+00 -0.1738870E+01  0.5409007E-01  0.3187871E+00
  0.6978330E+01  0.8503110E+01  0.0000000E+00  0.2969270E+00 -0.1745181E+01  0.5151746E-01  0.2924236E+00
  0.6111270E+01  0.9146170E+01  0.0000000E+00  0.2690659E+00 -0.1757554E+01  0.4995843E-01  0.2643872E+00
  0.5185360E+01  0.9701130E+01  0.0000000E+00  0.2401621E+00 -0.1778535E+01  0.4953293E-01  0.2349986E+00
  0.4209520E+01  0.1016270E+02  0.0000000E+00  0.2104694E+00 -0.1812617E+01  0.5040134E-01  0.2043455E+00
  0.3193130E+01  0.1052630E+02  0.0000000E+00  0.1806006E+00 -0.1867635E+01  0.5282536E-01  0.1727023E+00
  0.2145990E+01  0.1078860E+02  0.0000000E+00  0.1516753E+00 -0.1954348E+01  0.5675935E-01  0.1406548E+00
  0.1078190E+01  0.1094700E+02  0.0000000E+00  0.1250232E+00 -0.2091075E+01  0.6215173E-01  0.1084802E+00
 -0.4808250E-06  0.1100000E+02  0.0000000E+00  0.1029744E+00 -0.2305172E+01  0.6900559E-01  0.7643272E-01
 -0.1078190E+01  0.1094700E+02  0.0000000E+00  0.8948127E-01 -0.2613709E+01  0.7730063E-01  0.4507228E-01
 -0.2145990E+01  0.1078860E+02  0.0000000E+00  0.8796360E-01 -0.2973341E+01  0.8672146E-01  0.1473033E-01
 -0.3193130E+01  0.1052630E+02  0.0000000E+00  0.9813421E-01  0.2993572E+01  0.9706111E-01 -0.1447293E-01
 -0.4209520E+01  0.1016270E+02  0.0000000E+00  0.1160820E+00  0.2769414E+01  0.1081347E+00 -0.4221279E-01
 -0.5185370E+01  0.9701130E+01  0.0000000E+00  0.1375033E+00  0.2625805E+01  0.1196148E+00 -0.6781942E-01
 -0.6111270E+01  0.9146160E+01  0.0000000E+00  0.1597790E+00  0.2533144E+01  0.1311044E+00 -0.9132887E-01
 -0.6978330E+01  0.8503120E+01  0.0000000E+00  0.1816481E+00  0.2471468E+01  0.1423657E+00 -0.1128187E+00
 -0.7778170E+01  0.7778170E+01  0.0000000E+00  0.2021523E+00  0.2430193E+01  0.1531200E+00 -0.1319841E+00
 -0.8503120E+01  0.6978330E+01  0.0000000E+00  0.2201865E+00  0.2403508E+01  0.1628848E+00 -0.1481574E+00
 -0.9146170E+01  0.6111270E+01  0.0000000E+00  0.2356641E+00  0.2385377E+01  0.1714310E+00 -0.1617065E+00
 -0.9701130E+01  0.5185360E+01  0.0000000E+00  0.2485694E+00  0.2372628E+01  0.1786296E+00 -0.1728531E+00
 -0.1016270E+02  0.4209520E+01  0.0000000E+00  0.2584956E+00  0.2364213E+01  0.1842439E+00 -0.1813124E+00
 -0.1052630E+02  0.3193130E+01  0.0000000E+00  0.2646942E+00  0.2359963E+01  0.1878711E+00 -0.1864603E+00
 -0.1078860E+02  0.2145990E+01  0.0000000E+00  0.2675915E+00  0.2358169E+01  0.1895890E+00 -0.1888418E+00
 -0.1094700E+02  0.1078190E+01  0.0000000E+00  0.2674150E+00  0.2358086E+01  0.1894482E+00 -0.1887330E+00
 -0.1100000E+02 -0.9616510E-06  0.0000000E+00  0.2639077E+00  0.2360228E+01  0.1873620E+00 -0.1858568E+00
 -0.1094700E+02 -0.1078190E+01  0.0000000E+00  0.2565745E+00  0.2365959E+01  0.1831884E+00 -0.1796453E+00
 -0.1078860E+02 -0.2146000E+01  0.0000000E+00  0.2461205E+00  0.2375081E+01  0.1772891E+00 -0.1707157E+00
 -0.1052630E+02 -0.3193130E+01  0.0000000E+00  0.2329177E+00  0.2388160E+01  0.1698774E+00 -0.1593497E+00
 -0.1016270E+02 -0.4209520E+01  0.0000000E+00  0.2169113E+00  0.2407533E+01  0.1610481E+00 -0.1453065E+00
 -0.9701130E+01 -0.5185360E+01  0.0000000E+00  0.1980488E+00  0.2437701E+01  0.1509784E+00 -0.1281751E+00
 -0.9146160E+01 -0.6111270E+01  0.0000000E+00  0.1773082E+00  0.2482307E+01  0.1401497E+00 -0.1086106E+00
 -0.8503110E+01 -0.6978330E+01  0.0000000E+00  0.1554200E+00  0.2548140E+01  0.1288454E+00 -0.8691503E-01
 -0.7778170E+01 -0.7778180E+01  0.0000000E+00  0.1331277E+00  0.2648854E+01  0.1172909E+00 -0.6297479E-01
 -0.6978330E+01 -0.8503110E+01  0.0000000E+00  0.1120400E+00  0.2808092E+01  0.1058669E+00 -0.3667663E-01
 -0.6111270E+01 -0.9146170E+01  0.0000000E+00  0.9534811E-01  0.3050227E+01  0.9495042E-01 -0.8699419E-02
 -0.5185360E+01 -0.9701130E+01  0.0000000E+00  0.8722978E-01 -0.2902779E+01  0.8475415E-01  0.2063418E-01
 -0.4209510E+01 -0.1016270E+02  0.0000000E+00  0.9124973E-01 -0.2545313E+01  0.7550281E-01  0.5124294E-01
 -0.3193130E+01 -0.1052630E+02  0.0000000E+00  0.1069069E+00 -0.2254734E+01  0.6754913E-01  0.8286257E-01
 -0.2145990E+01 -0.1078860E+02  0.0000000E+00  0.1300780E+00 -0.2058711E+01  0.6097858E-01  0.1148995E+00
 -0.1078190E+01 -0.1094700E+02  0.0000000E+00  0.1573123E+00 -0.1933587E+01  0.5582768E-01  0.1470729E+00
  0.1311740E-06 -0.1100000E+02  0.0000000E+00  0.1865789E+00 -0.1854270E+01  0.5218475E-01  0.1791324E+00
  0.1078190E+01 -0.1094700E+02  0.0000000E+00  0.2164194E+00 -0.1804679E+01  0.5015645E-01  0.2105272E+00
  0.2145990E+01 -0.1078860E+02  0.0000000E+00  0.2459528E+00 -0.1773545E+01  0.4952567E-01  0.2409149E+00
  0.3193140E+01 -0.1052630E+02  0.0000000E+00  0.2747861E+00 -0.1754349E+01  0.5015504E-01  0.2701700E+00
  0.4209520E+01 -0.1016270E+02  0.0000000E+00  0.3024647E+00 -0.1743420E+01  0.5195356E-01  0.2979693E+00
  0.5185360E+01 -0.9701130E+01  0.0000000E+00  0.3282458E+00 -0.1738333E+01  0.5473626E-01  0.3236499E+00
  0.6111270E+01 -0.9146160E+01  0.0000000E+00  0.3520729E+00 -0.1736745E+01  0.5815832E-01  0.3472361E+00
  0.6978330E+01 -0.8503110E+01  0.0000000E+00  0.3739778E+00 -0.1737409E+01  0.6202147E-01  0.3687991E+00
  0.7778180E+01 -0.7778170E+01  0.0000000E+00  0.3936296E+00 -0.1739607E+01  0.6613389E-01  0.3880343E+00
  0.8503120E+01 -0.6978320E+01  0.0000000E+00  0.4103220E+00 -0.1742608E+01  0.7015183E-01  0.4042807E+00
  0.9146170E+01 -0.6111270E+01  0.0000000E+00  0.4243672E+00 -0.1745691E+01  0.7384192E-01  0.4178934E+00
  0.9701130E+01 -0.5185360E+01  0.0000000E+00  0.4359582E+00 -0.1748536E+01  0.7707970E-01  0.4290901E+00
  0.1016270E+02 -0.4209520E+01  0.0000000E+00  0.4447846E+00 -0.1750949E+01  0.7969645E-01  0.4375864E+00
  0.1052630E+02 -0.3193130E+01  0.0000000E+00  0.4501859E+00 -0.1752614E+01  0.8140139E-01  0.4427653E+00
  0.1078860E+02 -0.2145990E+01  0.0000000E+00  0.4526902E+00 -0.1753420E+01  0.8221313E-01  0.4451623E+00
  0.1094700E+02 -0.1078180E+01  0.0000000E+00  0.4525688E+00 -0.1753332E+01  0.8215174E-01  0.4450501E+00
  0.1100000E+02  0.0000000E+00 -0.2568960E-01  0.4490133E+00 -0.1752390E+01  0.8109071E-01  0.4416302E+00
  0.1094700E+02  0.1078190E+01 -0.2568960E-01  0.4425281E+00 -0.1750538E+01  0.7911295E-01  0.4353989E+00
  0.1078860E+02  0.2145990E+01 -0.2568960E-01  0.4332322E+00 -0.1748068E+01  0.7639809E-01  0.4264428E+00
  0.1052630E+02  0.3193130E+01 -0.2568960E-01  0.4214172E+00 -0.1745127E+01  0.7309446E-01  0.4150297E+00
  0.1016270E+02  0.4209520E+01 -0.2568960E-01  0.4068849E+00 -0.1741960E+01  0.6930444E-01  0.4009392E+00
  0.9701130E+01  0.5185360E+01 -0.2568960E-01  0.3892638E+00 -0.1739126E+01  0.6521560E-01  0.3837619E+00
  0.9146170E+01  0.6111270E+01 -0.2568960E-01  0.3692546E+00 -0.1737237E+01  0.6117553E-01  0.3641518E+00
  0.8503110E+01  0.6978330E+01 -0.2568960E-01  0.3471756E+00 -0.1736845E+01  0.5738337E-01  0.3424004E+00
  0.7778170E+01  0.7778170E+01 -0.2568960E-01  0.3229669E+00 -0.1738889E+01  0.5403291E-01  0.3184149E+00
  0.6978330E+01  0.8503110E+01 -0.2568960E-01  0.2965830E+00 -0.1745199E+01  0.5146305E-01  0.2920839E+00
  0.6111270E+01  0.9146170E+01 -0.2568960E-01  0.2687551E+00 -0.1757563E+01  0.4990315E-01  0.2640814E+00
  0.5185360E+01  0.9701130E+01 -0.2568960E-01  0.2398823E+00 -0.1778543E+01  0.4947714E-01  0.2347244E+00
  0.4209520E+01  0.1016270E+02 -0.2568960E-01  0.2102274E+00 -0.1812617E+01  0.5034323E-01  0.2041105E+00
  0.3193130E+01  0.1052630E+02 -0.2568960E-01  0.1803959E+00 -0.1867630E+01  0.5276477E-01  0.1725067E+00
  0.2145990E+01  0.1078860E+02 -0.2568960E-01  0.1515026E+00 -0.1954333E+01  0.5669266E-01  0.1404955E+00
  0.1078190E+01  0.1094700E+02 -0.2568960E-01  0.1248805E+00 -0.2091069E+01  0.6208016E-01  0.1083568E+00
 -0.4808250E-06  0.1100000E+02 -0.2568960E-01  0.1028590E+00 -0.2305135E+01  0.6892544E-01  0.7634956E-01
 -0.1078190E+01  0.1094700E+02 -0.2568960E-01  0.8938275E-01 -0.2613626E+01  0.7721177E-01  0.4502907E-01
 -0.2145990E+01  0.1078860E+02 -0.2568960E-01  0.8786429E-01 -0.2973269E+01  0.8662250E-01  0.1471992E-01
 -0.3193130E+01  0.1052630E+02 -0.2568960E-01  0.9802362E-01  0.2993652E+01  0.9695287E-01 -0.1444887E-01
 -0.4209520E+01  0.1016270E+02 -0.2568960E-01  0.1159485E+00  0.2769505E+01  0.1080142E+00 -0.4215439E-01
 -0.5185370E+01  0.9701130E+01 -0.2568960E-01  0.1373418E+00  0.2625912E+01  0.1194815E+00 -0.6772694E-01
 -0.6111270E+01  0.9146160E+01 -0.2568960E-01  0.1595947E+00  0.2533230E+01  0.1309610E+00 -0.9121227E-01
 -0.6978330E+01  0.8503120E+01 -0.2568960E-01  0.1814377E+00  0.2471565E+01  0.1422117E+00 -0.1126742E+00
 -0.7778170E+01  0.7778170E+01 -0.2568960E-01  0.2019173E+00  0.2430286E+01  0.1529543E+00 -0.1318164E+00
 -0.8503120E+01  0.6978330E+01 -0.2568960E-01  0.2199275E+00  0.2403607E+01  0.1627079E+00 -0.1479671E+00
 -0.9146170E+01  0.6111270E+01 -0.2568960E-01  0.2353918E+00  0.2385469E+01  0.1712478E+00 -0.1615039E+00
 -0.9701130E+01  0.5185360E+01 -0.2568960E-01  0.2482796E+00  0.2372728E+01  0.1784387E+00 -0.1726336E+00
 -0.1016270E+02  0.4209520E+01 -0.2568960E-01  0.2581951E+00  0.2364311E+01  0.1840474E+00 -0.1810836E+00
 -0.1052630E+02  0.3193130E+01 -0.2568960E-01  0.2643840E+00  0.2360065E+01  0.1876699E+00 -0.1862226E+00
 -0.1078860E+02  0.2145990E+01 -0.2568960E-01  0.2672819E+00  0.2358265E+01  0.1893877E+00 -0.1886052E+00
 -0.1094700E+02  0.1078190E+01 -0.2568960E-01  0.2671018E+00  0.2358188E+01  0.1892456E+00 -0.1884926E+00
 -0.1100000E+02 -0.9616510E-06 -0.2568960E-01  0.2636009E+00  0.2360326E+01  0.1871624E+00 -0.1856224E+00
 -0.1094700E+02 -0.1078190E+01 -0.2568960E-01  0.2562747E+00  0.2366060E+01  0.1829926E+00 -0.1794170E+00
 -0.1078860E+02 -0.2146000E+01 -0.2568960E-01  0.2458358E+00  0.2375174E+01  0.1770999E+00 -0.1705019E+00
 -0.1052630E+02 -0.3193130E+01 -0.2568960E-01  0.2326439E+00  0.2388260E+01  0.1696935E+00 -0.1591455E+00
 -0.1016270E+02 -0.4209520E+01 -0.2568960E-01  0.2166591E+00  0.2407628E+01  0.1608746E+00 -0.1451224E+00
 -0.9701130E+01 -0.5185360E+01 -0.2568960E-01  0.1978188E+00  0.2437798E+01  0.1508154E+00 -0.1280116E+00
 -0.9146160E+01 -0.6111270E+01 -0.2568960E-01  0.1771039E+00  0.2482395E+01  0.1399978E+00 -0.1084730E+00
 -0.8503110E+01 -0.6978330E+01 -0.2568960E-01  0.1552374E+00  0.2548242E+01  0.1287029E+00 -0.8679976E-01
 -0.7778170E+01 -0.7778180E+01 -0.2568960E-01  0.1329737E+00  0.2648944E+01  0.1171609E+00 -0.6289142E-01
 -0.6978330E+01 -0.8503110E+01 -0.2568960E-01  0.1119130E+00  0.2808182E+01  0.1057501E+00 -0.3662558E-01
 -0.6111270E+01 -0.9146170E+01 -0.2568960E-01  0.9523983E-01  0.3050305E+01  0.9484328E-01 -0.8682112E-02
 -0.5185360E+01 -0.9701130E+01 -0.2568960E-01  0.8713213E-01 -0.2902671E+01  0.8465704E-01  0.2062024E-01
 -0.4209510E+01 -0.1016270E+02 -0.2568960E-01  0.9114798E-01 -0.2545262E+01  0.7541599E-01  0.5118967E-01
 -0.3193130E+01 -0.1052630E+02 -0.2568960E-01  0.1067862E+00 -0.2254722E+01  0.6747189E-01  0.8276977E-01
 -0.2145990E+01 -0.1078860E+02 -0.2568960E-01  0.1299306E+00 -0.2058689E+01  0.6090694E-01  0.1147706E+00
 -0.1078190E+01 -0.1094700E+02 -0.2568960E-01  0.1571353E+00 -0.1933576E+01  0.5576328E-01  0.1469080E+00
  0.1311740E-06 -0.1100000E+02 -0.2568960E-01  0.1863652E+00 -0.1854265E+01  0.5212401E-01  0.1789276E+00
  0.1078190E+01 -0.1094700E+02 -0.2568960E-01  0.2161678E+00 -0.1804684E+01  0.5009921E-01  0.2102821E+00
  0.2145990E+01 -0.1078860E+02 -0.2568960E-01  0.2456693E+00 -0.1773549E+01  0.4946952E-01  0.2406370E+00
  0.3193140E+01 -0.1052630E+02 -0.2568960E-01  0.2744687E+00 -0.1754364E+01  0.5010097E-01  0.2698573E+00
  0.4209520E+01 -0.1016270E+02 -0.2568960E-01  0.3021132E+00 -0.1743435E+01  0.5189782E-01  0.2976223E+00
  0.5185360E+01 -0.9701130E+01 -0.2568960E-01  0.3278607E+00 -0.1738352E+01  0.5467830E-01  0.3232692E+00
  0.6111270E+01 -0.9146160E+01 -0.2568960E-01  0.3516634E+00 -0.1736768E+01  0.5809856E-01  0.3468309E+00
  0.6978330E+01 -0.8503110E+01 -0.2568960E-01  0.3735405E+00 -0.1737439E+01  0.6195993E-01  0.3683659E+00
  0.7778180E+01 -0.7778170E+01 -0.2568960E-01  0.3931685E+00 -0.1739639E+01  0.6606851E-01  0.3875776E+00
  0.8503120E+01 -0.6978320E+01 -0.2568960E-01  0.4098381E+00 -0.1742641E+01  0.7008228E-01  0.4038016E+00
  0.9146170E+01 -0.6111270E+01 -0.2568960E-01  0.4238707E+00 -0.1745728E+01  0.7377080E-01  0.4174018E+00
  0.9701130E+01 -0.5185360E+01 -0.2568960E-01  0.4354450E+00 -0.1748576E+01  0.7700622E-01  0.4285819E+00
  0.1016270E+02 -0.4209520E+01 -0.2568960E-01  0.4442615E+00 -0.1750989E+01  0.7962036E-01  0.4370685E+00
  0.1052630E+02 -0.3193130E+01 -0.2568960E-01  0.4496540E+00 -0.1752654E+01  0.8132315E-01  0.4422389E+00
  0.1078860E+02 -0.2145990E+01 -0.2568960E-01  0.4521596E+00 -0.1753462E+01  0.8213550E-01  0.4446370E+00
  0.1094700E+02 -0.1078180E+01 -0.2568960E-01  0.4520341E+00 -0.1753373E+01  0.8207320E-01  0.4445209E+00
  0.1100000E+02  0.0000000E+00 -0.1027320E+00  0.4475853E+00 -0.1752418E+01  0.8084481E-01  0.4402235E+00
  0.1094700E+02  0.1078190E+01 -0.1027320E+00  0.4411265E+00 -0.1750563E+01  0.7887358E-01  0.4340179E+00
  0.1078860E+02  0.2145990E+01 -0.1027320E+00  0.4318774E+00 -0.1748085E+01  0.7616652E-01  0.4251080E+00
  0.1052630E+02  0.3193130E+01 -0.1027320E+00  0.4200766E+00 -0.1745134E+01  0.7286490E-01  0.4137089E+00
  0.1016270E+02  0.4209520E+01 -0.1027320E+00  0.4055883E+00 -0.1741966E+01  0.6908578E-01  0.3996611E+00
  0.9701130E+01  0.5185360E+01 -0.1027320E+00  0.3880298E+00 -0.1739128E+01  0.6500957E-01  0.3825453E+00
  0.9146170E+01  0.6111270E+01 -0.1027320E+00  0.3680931E+00 -0.1737216E+01  0.6097544E-01  0.3630076E+00
  0.8503110E+01  0.6978330E+01 -0.1027320E+00  0.3460617E+00 -0.1736811E+01  0.5718788E-01  0.3413038E+00
  0.7778170E+01  0.7778170E+01 -0.1027320E+00  0.3219300E+00 -0.1738850E+01  0.5384734E-01  0.3173946E+00
  0.6978330E+01  0.8503110E+01 -0.1027320E+00  0.2956361E+00 -0.1745150E+01  0.5128442E-01  0.2911539E+00
  0.6111270E+01  0.9146170E+01 -0.1027320E+00  0.2678950E+00 -0.1757475E+01  0.4972029E-01  0.2632406E+00
  0.5185360E+01  0.9701130E+01 -0.1027320E+00  0.2390945E+00 -0.1778453E+01  0.4929359E-01  0.2339580E+00
  0.4209520E+01  0.1016270E+02 -0.1027320E+00  0.2095359E+00 -0.1812513E+01  0.5015659E-01  0.2034444E+00
  0.3193130E+01  0.1052630E+02 -0.1027320E+00  0.1798031E+00 -0.1867500E+01  0.5256887E-01  0.1719467E+00
  0.2145990E+01  0.1078860E+02 -0.1027320E+00  0.1509879E+00 -0.1954181E+01  0.5647876E-01  0.1400268E+00
  0.1078190E+01  0.1094700E+02 -0.1027320E+00  0.1244398E+00 -0.2091003E+01  0.6185398E-01  0.1079785E+00
 -0.4808250E-06  0.1100000E+02 -0.1027320E+00  0.1024909E+00 -0.2305110E+01  0.6867690E-01  0.7607799E-01
 -0.1078190E+01  0.1094700E+02 -0.1027320E+00  0.8905970E-01 -0.2613700E+01  0.7693606E-01  0.4486059E-01
 -0.2145990E+01  0.1078860E+02 -0.1027320E+00  0.8754944E-01 -0.2973706E+01  0.8631852E-01  0.1462939E-01
 -0.3193130E+01  0.1052630E+02 -0.1027320E+00  0.9769835E-01  0.2993163E+01  0.9662411E-01 -0.1444811E-01
 -0.4209520E+01  0.1016270E+02 -0.1027320E+00  0.1155741E+00  0.2769126E+01  0.1076495E+00 -0.4205903E-01
 -0.5185370E+01  0.9701130E+01 -0.1027320E+00  0.1369051E+00  0.2625595E+01  0.1190802E+00 -0.6754935E-01
 -0.6111270E+01  0.9146160E+01 -0.1027320E+00  0.1591110E+00  0.2532876E+01  0.1305319E+00 -0.9098214E-01
 -0.6978330E+01  0.8503120E+01 -0.1027320E+00  0.1808871E+00  0.2471323E+01  0.1417529E+00 -0.1123667E+00
 -0.7778170E+01  0.7778170E+01 -0.1027320E+00  0.2012983E+00  0.2430096E+01  0.1524604E+00 -0.1314414E+00
 -0.8503120E+01  0.6978330E+01 -0.1027320E+00  0.2192538E+00  0.2403432E+01  0.1621837E+00 -0.1475422E+00
 -0.9146170E+01  0.6111270E+01 -0.1027320E+00  0.2346937E+00  0.2385270E+01  0.1707079E+00 -0.1610588E+00
 -0.9701130E+01  0.5185360E+01 -0.1027320E+00  0.2475289E+00  0.2372590E+01  0.1778754E+00 -0.1721362E+00
 -0.1016270E+02  0.4209520E+01 -0.1027320E+00  0.2574079E+00  0.2364194E+01  0.1834650E+00 -0.1805531E+00
 -0.1052630E+02  0.3193130E+01 -0.1027320E+00  0.2635808E+00  0.2359944E+01  0.1870772E+00 -0.1856797E+00
 -0.1078860E+02  0.2145990E+01 -0.1027320E+00  0.2664914E+00  0.2358109E+01  0.1887983E+00 -0.1880767E+00
 -0.1094700E+02  0.1078190E+01 -0.1027320E+00  0.2662915E+00  0.2358069E+01  0.1886491E+00 -0.1879433E+00
 -0.1100000E+02 -0.9616510E-06 -0.1027320E+00  0.2627977E+00  0.2360214E+01  0.1865715E+00 -0.1850776E+00
 -0.1094700E+02 -0.1078190E+01 -0.1027320E+00  0.2554998E+00  0.2365930E+01  0.1824158E+00 -0.1788983E+00
 -0.1078860E+02 -0.2146000E+01 -0.1027320E+00  0.2451077E+00  0.2374991E+01  0.1765444E+00 -0.1700291E+00
 -0.1052630E+02 -0.3193130E+01 -0.1027320E+00  0.2319329E+00  0.2388100E+01  0.1691495E+00 -0.1586862E+00
 -0.1016270E+02 -0.4209520E+01 -0.1027320E+00  0.2159962E+00  0.2407461E+01  0.1603584E+00 -0.1447051E+00
 -0.9701130E+01 -0.5185360E+01 -0.1027320E+00  0.1972202E+00  0.2437585E+01  0.1503320E+00 -0.1276562E+00
 -0.9146160E+01 -0.6111270E+01 -0.1027320E+00  0.1765715E+00  0.2482082E+01  0.1395431E+00 -0.1081907E+00
 -0.8503110E+01 -0.6978330E+01 -0.1027320E+00  0.1547505E+00  0.2547961E+01  0.1282750E+00 -0.8656354E-01
 -0.7778170E+01 -0.7778180E+01 -0.1027320E+00  0.1325536E+00  0.2648611E+01  0.1167699E+00 -0.6273156E-01
 -0.6978330E+01 -0.8503110E+01 -0.1027320E+00  0.1115556E+00  0.2807732E+01  0.1053960E+00 -0.3655595E-01
 -0.6111270E+01 -0.9146170E+01 -0.1027320E+00  0.9491560E-01  0.3049782E+01  0.9451585E-01 -0.8702016E-02
 -0.5185360E+01 -0.9701130E+01 -0.1027320E+00  0.8682001E-01 -0.2902906E+01  0.8435861E-01  0.2052657E-01
 -0.4209510E+01 -0.1016270E+02 -0.1027320E+00  0.9081709E-01 -0.2545369E+01  0.7514767E-01  0.5099579E-01
 -0.3193130E+01 -0.1052630E+02 -0.1027320E+00  0.1064006E+00 -0.2254734E+01  0.6722922E-01  0.8247012E-01
 -0.2145990E+01 -0.1078860E+02 -0.1027320E+00  0.1294783E+00 -0.2058556E+01  0.6067969E-01  0.1143792E+00
 -0.1078190E+01 -0.1094700E+02 -0.1027320E+00  0.1566120E+00 -0.1933432E+01  0.5555644E-01  0.1464268E+00
  0.1311740E-06 -0.1100000E+02 -0.1027320E+00  0.1857462E+00 -0.1854149E+01  0.5193015E-01  0.1783393E+00
  0.1078190E+01 -0.1094700E+02 -0.1027320E+00  0.2154521E+00 -0.1804583E+01  0.4991235E-01  0.2095910E+00
  0.2145990E+01 -0.1078860E+02 -0.1027320E+00  0.2448782E+00 -0.1773445E+01  0.4928539E-01  0.2398672E+00
  0.3193140E+01 -0.1052630E+02 -0.1027320E+00  0.2735900E+00 -0.1754301E+01  0.4992364E-01  0.2689965E+00
  0.4209520E+01 -0.1016270E+02 -0.1027320E+00  0.3011408E+00 -0.1743385E+01  0.5171597E-01  0.2966669E+00
  0.5185360E+01 -0.9701130E+01 -0.1027320E+00  0.3268056E+00 -0.1738309E+01  0.5448831E-01  0.3222311E+00
  0.6111270E+01 -0.9146160E+01 -0.1027320E+00  0.3505552E+00 -0.1736736E+01  0.5790441E-01  0.3457398E+00
  0.6978330E+01 -0.8503110E+01 -0.1027320E+00  0.3723553E+00 -0.1737433E+01  0.6176117E-01  0.3671975E+00
  0.7778180E+01 -0.7778170E+01 -0.1027320E+00  0.3919142E+00 -0.1739638E+01  0.6585745E-01  0.3863412E+00
  0.8503120E+01 -0.6978320E+01 -0.1027320E+00  0.4085326E+00 -0.1742642E+01  0.6985937E-01  0.4025153E+00
  0.9146170E+01 -0.6111270E+01 -0.1027320E+00  0.4225444E+00 -0.1745740E+01  0.7354483E-01  0.4160948E+00
  0.9701130E+01 -0.5185360E+01 -0.1027320E+00  0.4340662E+00 -0.1748599E+01  0.7677192E-01  0.4272231E+00
  0.1016270E+02 -0.4209520E+01 -0.1027320E+00  0.4428483E+00 -0.1751014E+01  0.7937794E-01  0.4356762E+00
  0.1052630E+02 -0.3193130E+01 -0.1027320E+00  0.4482281E+00 -0.1752679E+01  0.8107619E-01  0.4408345E+00
  0.1078860E+02 -0.2145990E+01 -0.1027320E+00  0.4507472E+00 -0.1753490E+01  0.8189133E-01  0.4432458E+00
  0.1094700E+02 -0.1078180E+01 -0.1027320E+00  0.4506009E+00 -0.1753399E+01  0.8182466E-01  0.4431094E+00
  0.1100000E+02  0.0000000E+00 -0.2310450E+00  0.4452285E+00 -0.1752436E+01  0.8042707E-01  0.4379040E+00
  0.1094700E+02  0.1078190E+01 -0.2310450E+00  0.4388190E+00 -0.1750580E+01  0.7846802E-01  0.4317463E+00
  0.1078860E+02  0.2145990E+01 -0.2310450E+00  0.4296573E+00 -0.1748088E+01  0.7577638E-01  0.4229224E+00
  0.1052630E+02  0.3193130E+01 -0.2310450E+00  0.4178696E+00 -0.1745126E+01  0.7247882E-01  0.4115359E+00
  0.1016270E+02  0.4209520E+01 -0.2310450E+00  0.4034469E+00 -0.1741958E+01  0.6871807E-01  0.3975515E+00
  0.9701130E+01  0.5185360E+01 -0.2310450E+00  0.3859953E+00 -0.1739114E+01  0.6466363E-01  0.3805404E+00
  0.9146170E+01  0.6111270E+01 -0.2310450E+00  0.3661878E+00 -0.1737164E+01  0.6064134E-01  0.3611318E+00
  0.8503110E+01  0.6978330E+01 -0.2310450E+00  0.3442270E+00 -0.1736751E+01  0.5686418E-01  0.3394977E+00
  0.7778170E+01  0.7778170E+01 -0.2310450E+00  0.3202173E+00 -0.1738787E+01  0.5354091E-01  0.3157095E+00
  0.6978330E+01  0.8503110E+01 -0.2310450E+00  0.2940730E+00 -0.1745068E+01  0.5098965E-01  0.2896186E+00
  0.6111270E+01  0.9146170E+01 -0.2310450E+00  0.2664813E+00 -0.1757326E+01  0.4941887E-01  0.2618588E+00
  0.5185360E+01  0.9701130E+01 -0.2310450E+00  0.2377969E+00 -0.1778319E+01  0.4899472E-01  0.2326948E+00
  0.4209520E+01  0.1016270E+02 -0.2310450E+00  0.2083939E+00 -0.1812369E+01  0.4985414E-01  0.2023428E+00
  0.3193130E+01  0.1052630E+02 -0.2310450E+00  0.1788220E+00 -0.1867316E+01  0.5225057E-01  0.1710180E+00
  0.2145990E+01  0.1078860E+02 -0.2310450E+00  0.1501380E+00 -0.1953948E+01  0.5612843E-01  0.1392516E+00
  0.1078190E+01  0.1094700E+02 -0.2310450E+00  0.1237140E+00 -0.2090927E+01  0.6148505E-01  0.1073533E+00
 -0.4808250E-06  0.1100000E+02 -0.2310450E+00  0.1018856E+00 -0.2305130E+01  0.6827284E-01  0.7562735E-01
 -0.1078190E+01  0.1094700E+02 -0.2310450E+00  0.8852693E-01 -0.2613912E+01  0.7648527E-01  0.4457601E-01
 -0.2145990E+01  0.1078860E+02 -0.2310450E+00  0.8702985E-01 -0.2974537E+01  0.8581827E-01  0.1447133E-01
 -0.3193130E+01  0.1052630E+02 -0.2310450E+00  0.9716299E-01  0.2992314E+01  0.9608240E-01 -0.1445057E-01
 -0.4209520E+01  0.1016270E+02 -0.2310450E+00  0.1149583E+00  0.2768474E+01  0.1070486E+00 -0.4190477E-01
 -0.5185370E+01  0.9701130E+01 -0.2310450E+00  0.1361891E+00  0.2625010E+01  0.1184181E+00 -0.6726541E-01
 -0.6111270E+01  0.9146160E+01 -0.2310450E+00  0.1583204E+00  0.2532196E+01  0.1298217E+00 -0.9061826E-01
 -0.6978330E+01  0.8503120E+01 -0.2310450E+00  0.1799798E+00  0.2470865E+01  0.1409907E+00 -0.1118675E+00
 -0.7778170E+01  0.7778170E+01 -0.2310450E+00  0.2002751E+00  0.2429739E+01  0.1516388E+00 -0.1308274E+00
 -0.8503120E+01  0.6978330E+01 -0.2310450E+00  0.2181455E+00  0.2403080E+01  0.1613121E+00 -0.1468532E+00
 -0.9146170E+01  0.6111270E+01 -0.2310450E+00  0.2335520E+00  0.2384853E+01  0.1698105E+00 -0.1603463E+00
 -0.9701130E+01  0.5185360E+01 -0.2310450E+00  0.2462914E+00  0.2372296E+01  0.1769358E+00 -0.1713277E+00
 -0.1016270E+02  0.4209520E+01 -0.2310450E+00  0.2561053E+00  0.2363942E+01  0.1824914E+00 -0.1796853E+00
 -0.1052630E+02  0.3193130E+01 -0.2310450E+00  0.2622585E+00  0.2359673E+01  0.1860886E+00 -0.1847986E+00
 -0.1078860E+02  0.2145990E+01 -0.2310450E+00  0.2651977E+00  0.2357764E+01  0.1878171E+00 -0.1872286E+00
 -0.1094700E+02  0.1078190E+01 -0.2310450E+00  0.2649566E+00  0.2357803E+01  0.1876537E+00 -0.1870510E+00
 -0.1100000E+02 -0.9616510E-06 -0.2310450E+00  0.2614680E+00  0.2359971E+01  0.1855827E+00 -0.1841862E+00
 -0.1094700E+02 -0.1078190E+01 -0.2310450E+00  0.2542218E+00  0.2365650E+01  0.1814536E+00 -0.1780543E+00
 -0.1078860E+02 -0.2146000E+01 -0.2310450E+00  0.2439160E+00  0.2374599E+01  0.1756195E+00 -0.1692714E+00
 -0.1052630E+02 -0.3193130E+01 -0.2310450E+00  0.2307634E+00  0.2387773E+01  0.1682450E+00 -0.1579410E+00
 -0.1016270E+02 -0.4209520E+01 -0.2310450E+00  0.2149003E+00  0.2407135E+01  0.1594978E+00 -0.1440229E+00
 -0.9701130E+01 -0.5185360E+01 -0.2310450E+00  0.1962328E+00  0.2437179E+01  0.1495277E+00 -0.1270778E+00
 -0.9146160E+01 -0.6111270E+01 -0.2310450E+00  0.1757018E+00  0.2481481E+01  0.1387910E+00 -0.1077412E+00
 -0.8503110E+01 -0.6978330E+01 -0.2310450E+00  0.1539514E+00  0.2547440E+01  0.1275677E+00 -0.8618303E-01
 -0.7778170E+01 -0.7778180E+01 -0.2310450E+00  0.1318616E+00  0.2648034E+01  0.1161242E+00 -0.6247108E-01
 -0.6978330E+01 -0.8503110E+01 -0.2310450E+00  0.1109671E+00  0.2806947E+01  0.1048114E+00 -0.3644538E-01
 -0.6111270E+01 -0.9146170E+01 -0.2310450E+00  0.9438188E-01  0.3048805E+01  0.9397588E-01 -0.8744904E-02
 -0.5185360E+01 -0.9701130E+01 -0.2310450E+00  0.8630694E-01 -0.2903384E+01  0.8386984E-01  0.2036515E-01
 -0.4209510E+01 -0.1016270E+02 -0.2310450E+00  0.9027418E-01 -0.2545602E+01  0.7471024E-01  0.5067353E-01
 -0.3193130E+01 -0.1052630E+02 -0.2310450E+00  0.1057662E+00 -0.2254793E+01  0.6683321E-01  0.8197444E-01
 -0.2145990E+01 -0.1078860E+02 -0.2310450E+00  0.1287301E+00 -0.2058360E+01  0.6030679E-01  0.1137301E+00
 -0.1078190E+01 -0.1094700E+02 -0.2310450E+00  0.1557457E+00 -0.1933232E+01  0.5522005E-01  0.1456278E+00
  0.1311740E-06 -0.1100000E+02 -0.2310450E+00  0.1847240E+00 -0.1853992E+01  0.5161654E-01  0.1773659E+00
  0.1078190E+01 -0.1094700E+02 -0.2310450E+00  0.2142728E+00 -0.1804436E+01  0.4960834E-01  0.2084510E+00
  0.2145990E+01 -0.1078860E+02 -0.2310450E+00  0.2435761E+00 -0.1773272E+01  0.4898204E-01  0.2386003E+00
  0.3193140E+01 -0.1052630E+02 -0.2310450E+00  0.2721381E+00 -0.1754200E+01  0.4963179E-01  0.2675740E+00
  0.4209520E+01 -0.1016270E+02 -0.2310450E+00  0.2995335E+00 -0.1743308E+01  0.5141703E-01  0.2950875E+00
  0.5185360E+01 -0.9701130E+01 -0.2310450E+00  0.3250673E+00 -0.1738235E+01  0.5417477E-01  0.3205212E+00
  0.6111270E+01 -0.9146160E+01 -0.2310450E+00  0.3487358E+00 -0.1736669E+01  0.5758082E-01  0.3439493E+00
  0.6978330E+01 -0.8503110E+01 -0.2310450E+00  0.3704012E+00 -0.1737409E+01  0.6142858E-01  0.3652719E+00
  0.7778180E+01 -0.7778170E+01 -0.2310450E+00  0.3898433E+00 -0.1739622E+01  0.6550337E-01  0.3843009E+00
  0.8503120E+01 -0.6978320E+01 -0.2310450E+00  0.4063836E+00 -0.1742625E+01  0.6948546E-01  0.4003991E+00
  0.9146170E+01 -0.6111270E+01 -0.2310450E+00  0.4203706E+00 -0.1745736E+01  0.7316480E-01  0.4139546E+00
  0.9701130E+01 -0.5185360E+01 -0.2310450E+00  0.4317951E+00 -0.1748612E+01  0.7637604E-01  0.4249867E+00
  0.1016270E+02 -0.4209520E+01 -0.2310450E+00  0.4405161E+00 -0.1751030E+01  0.7896650E-01  0.4333806E+00
  0.1052630E+02 -0.3193130E+01 -0.2310450E+00  0.4458811E+00 -0.1752693E+01  0.8065794E-01  0.4385251E+00
  0.1078860E+02 -0.2145990E+01 -0.2310450E+00  0.4484336E+00 -0.1753510E+01  0.8147961E-01  0.4409691E+00
  0.1094700E+02 -0.1078180E+01 -0.2310450E+00  0.4482427E+00 -0.1753417E+01  0.8140407E-01  0.4407890E+00
  0.1100000E+02  0.0000000E+00 -0.4105000E+00  0.4419228E+00 -0.1752443E+01  0.7983322E-01  0.4346521E+00
  0.1094700E+02  0.1078190E+01 -0.4105000E+00  0.4356124E+00 -0.1750589E+01  0.7789852E-01  0.4285907E+00
  0.1078860E+02  0.2145990E+01 -0.4105000E+00  0.4265548E+00 -0.1748084E+01  0.7522757E-01  0.4198688E+00
  0.1052630E+02  0.3193130E+01 -0.4105000E+00  0.4148036E+00 -0.1745107E+01  0.7193904E-01  0.4085178E+00
  0.1016270E+02  0.4209520E+01 -0.4105000E+00  0.4004443E+00 -0.1741947E+01  0.6820229E-01  0.3945936E+00
  0.9701130E+01  0.5185360E+01 -0.4105000E+00  0.3831683E+00 -0.1739094E+01  0.6418220E-01  0.3777546E+00
  0.9146170E+01  0.6111270E+01 -0.4105000E+00  0.3635276E+00 -0.1737104E+01  0.6017898E-01  0.3585119E+00
  0.8503110E+01  0.6978330E+01 -0.4105000E+00  0.3416782E+00 -0.1736676E+01  0.5641787E-01  0.3369882E+00
  0.7778170E+01  0.7778170E+01 -0.4105000E+00  0.3178176E+00 -0.1738734E+01  0.5312296E-01  0.3133464E+00
  0.6978330E+01  0.8503110E+01 -0.4105000E+00  0.2919002E+00 -0.1744978E+01  0.5058701E-01  0.2874834E+00
  0.6111270E+01  0.9146170E+01 -0.4105000E+00  0.2645104E+00 -0.1757165E+01  0.4901165E-01  0.2599300E+00
  0.5185360E+01  0.9701130E+01 -0.4105000E+00  0.2359967E+00 -0.1778170E+01  0.4858953E-01  0.2309405E+00
  0.4209520E+01  0.1016270E+02 -0.4105000E+00  0.2068032E+00 -0.1812256E+01  0.4945073E-01  0.2008038E+00
  0.3193130E+01  0.1052630E+02 -0.4105000E+00  0.1774620E+00 -0.1867117E+01  0.5181949E-01  0.1697277E+00
  0.2145990E+01  0.1078860E+02 -0.4105000E+00  0.1489627E+00 -0.1953721E+01  0.5565761E-01  0.1381742E+00
  0.1078190E+01  0.1094700E+02 -0.4105000E+00  0.1227132E+00 -0.2090898E+01  0.6098456E-01  0.1064867E+00
 -0.4808250E-06  0.1100000E+02 -0.4105000E+00  0.1010612E+00 -0.2305234E+01  0.6772820E-01  0.7500839E-01
 -0.1078190E+01  0.1094700E+02 -0.4105000E+00  0.8779680E-01 -0.2614267E+01  0.7587015E-01  0.4418143E-01
 -0.2145990E+01  0.1078860E+02 -0.4105000E+00  0.8632122E-01 -0.2975636E+01  0.8513522E-01  0.1425996E-01
 -0.3193130E+01  0.1052630E+02 -0.4105000E+00  0.9642693E-01  0.2991158E+01  0.9533790E-01 -0.1445126E-01
 -0.4209520E+01  0.1016270E+02 -0.4105000E+00  0.1141026E+00  0.2767746E+01  0.1062215E+00 -0.4167018E-01
 -0.5185370E+01  0.9701130E+01 -0.4105000E+00  0.1351982E+00  0.2624216E+01  0.1175034E+00 -0.6686929E-01
 -0.6111270E+01  0.9146160E+01 -0.4105000E+00  0.1572155E+00  0.2531325E+01  0.1288373E+00 -0.9009812E-01
 -0.6978330E+01  0.8503120E+01 -0.4105000E+00  0.1787181E+00  0.2470234E+01  0.1399322E+00 -0.1111716E+00
 -0.7778170E+01  0.7778170E+01 -0.4105000E+00  0.1988302E+00  0.2429325E+01  0.1504910E+00 -0.1299458E+00