 VARIABLES="X" "Y" "Z" "abs(eta) (m)" "angle(phi) (rad)" "PRE1" "PRE2"
ZONE N=   3200 ,E =    3136 ,F=FEPOINT,ET=QUADRILATERAL
  0.1010000E+02  0.0000000E+00  0.0000000E+00  0.2347866E+00 -0.1828413E+01  0.5981822E-01  0.2270386E+00
  0.1005140E+02  0.9899730E+00  0.0000000E+00  0.2589009E+00 -0.1816032E+01  0.6285725E-01  0.2511546E+00
  0.9905930E+01  0.1970410E+01  0.0000000E+00  0.2820337E+00 -0.1809559E+01  0.6670106E-01  0.2740328E+00
  0.9665100E+01  0.2931880E+01  0.0000000E+00  0.3037751E+00 -0.1806579E+01  0.7096306E-01  0.2953702E+00
  0.9331180E+01  0.3865100E+01  0.0000000E+00  0.3231595E+00 -0.1805784E+01  0.7524143E-01  0.3142782E+00
  0.8907400E+01  0.4761110E+01  0.0000000E+00  0.3400534E+00 -0.1806819E+01  0.7951710E-01  0.3306257E+00
  0.8397840E+01  0.5611260E+01  0.0000000E+00  0.3549329E+00 -0.1809006E+01  0.8375102E-01  0.3449103E+00
  0.7807410E+01  0.6407370E+01  0.0000000E+00  0.3678297E+00 -0.1811201E+01  0.8757860E-01  0.3572516E+00
  0.7141780E+01  0.7141780E+01  0.0000000E+00  0.3779471E+00 -0.1813073E+01  0.9067468E-01  0.3669089E+00
  0.6407370E+01  0.7807410E+01  0.0000000E+00  0.3849769E+00 -0.1814835E+01  0.9301941E-01  0.3735701E+00
  0.5611260E+01  0.8397840E+01  0.0000000E+00  0.3894014E+00 -0.1816191E+01  0.9460092E-01  0.3777355E+00
  0.4761110E+01  0.8907410E+01  0.0000000E+00  0.3916217E+00 -0.1816602E+01  0.9529648E-01  0.3798501E+00
  0.3865100E+01  0.9331180E+01  0.0000000E+00  0.3910579E+00 -0.1816291E+01  0.9504123E-01  0.3793329E+00
  0.2931870E+01  0.9665100E+01  0.0000000E+00  0.3872778E+00 -0.1815520E+01  0.9383277E-01  0.3757386E+00
  0.1970410E+01  0.9905930E+01  0.0000000E+00  0.3806677E+00 -0.1814030E+01  0.9168100E-01  0.3694625E+00
  0.9899730E+00  0.1005140E+02  0.0000000E+00  0.3719075E+00 -0.1811813E+01  0.8877046E-01  0.3611579E+00
 -0.4414850E-06  0.1010000E+02  0.0000000E+00  0.3607350E+00 -0.1809628E+01  0.8533814E-01  0.3504956E+00
 -0.9899740E+00  0.1005140E+02  0.0000000E+00  0.3466515E+00 -0.1807848E+01  0.8140677E-01  0.3369572E+00
 -0.1970410E+01  0.9905930E+01  0.0000000E+00  0.3299039E+00 -0.1806366E+01  0.7699855E-01  0.3207925E+00
 -0.2931880E+01  0.9665100E+01  0.0000000E+00  0.3113531E+00 -0.1805797E+01  0.7249667E-01  0.3027953E+00
 -0.3865100E+01  0.9331180E+01  0.0000000E+00  0.2911399E+00 -0.1807624E+01  0.6830713E-01  0.2830134E+00
 -0.4761110E+01  0.8907400E+01  0.0000000E+00  0.2688217E+00 -0.1813006E+01  0.6447649E-01  0.2609748E+00
 -0.5611260E+01  0.8397840E+01  0.0000000E+00  0.2444816E+00 -0.1823051E+01  0.6101959E-01  0.2367443E+00
 -0.6407370E+01  0.7807410E+01  0.0000000E+00  0.2191448E+00 -0.1840058E+01  0.5829689E-01  0.2112485E+00
 -0.7141780E+01  0.7141780E+01  0.0000000E+00  0.1934329E+00 -0.1867906E+01  0.5662892E-01  0.1849580E+00
 -0.7807410E+01  0.6407370E+01  0.0000000E+00  0.1672020E+00 -0.1912709E+01  0.5606109E-01  0.1575235E+00
 -0.8397840E+01  0.5611260E+01  0.0000000E+00  0.1407325E+00 -0.1984591E+01  0.5658664E-01  0.1288549E+00
 -0.8907410E+01  0.4761110E+01  0.0000000E+00  0.1156337E+00 -0.2099304E+01  0.5830773E-01  0.9985669E-01
 -0.9331180E+01  0.3865100E+01  0.0000000E+00  0.9403198E-01 -0.2280082E+01  0.6124226E-01  0.7135404E-01
 -0.9665100E+01  0.2931880E+01  0.0000000E+00  0.7835329E-01 -0.2558390E+01  0.6540176E-01  0.4314913E-01
 -0.9905930E+01  0.1970410E+01  0.0000000E+00  0.7232314E-01 -0.2932944E+01  0.7075458E-01  0.1498087E-01
 -0.1005140E+02  0.9899730E+00  0.0000000E+00  0.7806152E-01  0.2981511E+01  0.7706345E-01 -0.1244289E-01
 -0.1010000E+02 -0.8829700E-06  0.0000000E+00  0.9227742E-01  0.2714900E+01  0.8400376E-01 -0.3819017E-01
 -0.1005140E+02 -0.9899740E+00  0.0000000E+00  0.1107271E+00  0.2544158E+01  0.9154708E-01 -0.6228654E-01
 -0.9905930E+01 -0.1970410E+01  0.0000000E+00  0.1310725E+00  0.2434560E+01  0.9965342E-01 -0.8514217E-01
 -0.9665100E+01 -0.2931880E+01  0.0000000E+00  0.1515687E+00  0.2362868E+01  0.1078881E+00 -0.1064577E+00
 -0.9331180E+01 -0.3865100E+01  0.0000000E+00  0.1706148E+00  0.2316427E+01  0.1157512E+00 -0.1253438E+00
 -0.8907400E+01 -0.4761110E+01  0.0000000E+00  0.1877403E+00  0.2286543E+01  0.1231916E+00 -0.1416695E+00
 -0.8397840E+01 -0.5611260E+01  0.0000000E+00  0.2031375E+00  0.2266476E+01  0.1301923E+00 -0.1559320E+00
 -0.7807400E+01 -0.6407370E+01  0.0000000E+00  0.2165848E+00  0.2251925E+01  0.1363771E+00 -0.1682566E+00
 -0.7141780E+01 -0.7141780E+01  0.0000000E+00  0.2272122E+00  0.2242178E+01  0.1413416E+00 -0.1778987E+00
 -0.6407370E+01 -0.7807410E+01  0.0000000E+00  0.2347164E+00  0.2236856E+01  0.1450294E+00 -0.1845488E+00
 -0.5611260E+01 -0.8397850E+01  0.0000000E+00  0.2394871E+00  0.2234112E+01  0.1474600E+00 -0.1887051E+00
 -0.4761110E+01 -0.8907410E+01  0.0000000E+00  0.2418167E+00  0.2232248E+01  0.1485390E+00 -0.1908179E+00
 -0.3865100E+01 -0.9331190E+01  0.0000000E+00  0.2411707E+00  0.2232296E+01  0.1481514E+00 -0.1903010E+00
 -0.2931870E+01 -0.9665100E+01  0.0000000E+00  0.2371789E+00  0.2235295E+01  0.1462598E+00 -0.1867135E+00
 -0.1970410E+01 -0.9905930E+01  0.0000000E+00  0.2301830E+00  0.2240630E+01  0.1429105E+00 -0.1804461E+00
 -0.9899710E+00 -0.1005140E+02  0.0000000E+00  0.2208593E+00  0.2247750E+01  0.1383510E+00 -0.1721565E+00
  0.1204410E-06 -0.1010000E+02  0.0000000E+00  0.2091009E+00  0.2258971E+01  0.1328059E+00 -0.1615109E+00
  0.9899760E+00 -0.1005140E+02  0.0000000E+00  0.1945395E+00  0.2277152E+01  0.1262689E+00 -0.1479925E+00
  0.1970410E+01 -0.9905930E+01  0.0000000E+00  0.1774743E+00  0.2304181E+01  0.1187992E+00 -0.1318480E+00
  0.2931880E+01 -0.9665100E+01  0.0000000E+00  0.1589302E+00  0.2342813E+01  0.1108667E+00 -0.1138743E+00
  0.3865100E+01 -0.9331180E+01  0.0000000E+00  0.1394532E+00  0.2400781E+01  0.1029054E+00 -0.9411523E-01
  0.4761110E+01 -0.8907410E+01  0.0000000E+00  0.1192163E+00  0.2492120E+01  0.9494420E-01 -0.7209800E-01
  0.5611260E+01 -0.8397840E+01  0.0000000E+00  0.9933227E-01  0.2638558E+01  0.8702733E-01 -0.4788677E-01
  0.6407370E+01 -0.7807410E+01  0.0000000E+00  0.8270941E-01  0.2867213E+01  0.7961554E-01 -0.2241008E-01
  0.7141780E+01 -0.7141780E+01  0.0000000E+00  0.7319324E-01 -0.3088764E+01  0.7309113E-01  0.3864925E-02
  0.7807410E+01 -0.6407370E+01  0.0000000E+00  0.7439545E-01 -0.2707520E+01  0.6749606E-01  0.3128841E-01
  0.8397840E+01 -0.5611260E+01  0.0000000E+00  0.8685233E-01 -0.2379741E+01  0.6284277E-01  0.5995092E-01
  0.8907410E+01 -0.4761110E+01  0.0000000E+00  0.1069165E+00 -0.2159057E+01  0.5932957E-01  0.8894458E-01
  0.9331180E+01 -0.3865100E+01  0.0000000E+00  0.1305764E+00 -0.2023062E+01  0.5706247E-01  0.1174482E+00
  0.9665100E+01 -0.2931870E+01  0.0000000E+00  0.1560760E+00 -0.1938215E+01  0.5606364E-01  0.1456592E+00
  0.9905930E+01 -0.1970410E+01  0.0000000E+00  0.1827299E+00 -0.1884034E+01  0.5630649E-01  0.1738384E+00
  0.1005140E+02 -0.9899690E+00  0.0000000E+00  0.2093636E+00 -0.1849675E+01  0.5763326E-01  0.2012748E+00
  0.1010000E+02  0.0000000E+00 -0.2568960E-01  0.2345781E+00 -0.1828400E+01  0.5976199E-01  0.2268378E+00
  0.1005140E+02  0.9899730E+00 -0.2568960E-01  0.2586976E+00 -0.1815984E+01  0.6279591E-01  0.2509604E+00
  0.9905930E+01  0.1970410E+01 -0.2568960E-01  0.2817813E+00 -0.1809555E+01  0.6664038E-01  0.2737878E+00
  0.9665100E+01  0.2931880E+01 -0.2568960E-01  0.3035364E+00 -0.1806544E+01  0.7089714E-01  0.2951406E+00
  0.9331180E+01  0.3865100E+01 -0.2568960E-01  0.3228767E+00 -0.1805779E+01  0.7517420E-01  0.3140035E+00
  0.8907400E+01  0.4761110E+01 -0.2568960E-01  0.3397941E+00 -0.1806799E+01  0.7944998E-01  0.3303751E+00
  0.8397840E+01  0.5611260E+01 -0.2568960E-01  0.3546168E+00 -0.1809006E+01  0.8367665E-01  0.3446031E+00
  0.7807410E+01  0.6407370E+01 -0.2568960E-01  0.3675485E+00 -0.1811187E+01  0.8750653E-01  0.3569797E+00
  0.7141780E+01  0.7141780E+01 -0.2568960E-01  0.3776182E+00 -0.1813074E+01  0.9059594E-01  0.3665895E+00
  0.6407370E+01  0.7807410E+01 -0.2568960E-01  0.3846851E+00 -0.1814828E+01  0.9294634E-01  0.3732875E+00
  0.5611260E+01  0.8397840E+01 -0.2568960E-01  0.3890550E+00 -0.1816194E+01  0.9451782E-01  0.3773993E+00
  0.4761110E+01  0.8907410E+01 -0.2568960E-01  0.3913244E+00 -0.1816597E+01  0.9522194E-01  0.3795623E+00
  0.3865100E+01  0.9331180E+01 -0.2568960E-01  0.3907173E+00 -0.1816294E+01  0.9495945E-01  0.3790022E+00
  0.2931870E+01  0.9665100E+01 -0.2568960E-01  0.3869831E+00 -0.1815512E+01  0.9375840E-01  0.3754535E+00
  0.1970410E+01  0.9905930E+01 -0.2568960E-01  0.3803294E+00 -0.1814032E+01  0.9160025E-01  0.3691339E+00
  0.9899730E+00  0.1005140E+02 -0.2568960E-01  0.3716258E+00 -0.1811801E+01  0.8869918E-01  0.3608853E+00
 -0.4414850E-06  0.1010000E+02 -0.2568960E-01  0.3604206E+00 -0.1809627E+01  0.8526363E-01  0.3501901E+00
 -0.9899740E+00  0.1005140E+02 -0.2568960E-01  0.3463850E+00 -0.1807826E+01  0.8133699E-01  0.3367000E+00
 -0.1970410E+01  0.9905930E+01 -0.2568960E-01  0.3296103E+00 -0.1806365E+01  0.7692979E-01  0.3205070E+00
 -0.2931880E+01  0.9665100E+01 -0.2568960E-01  0.3111139E+00 -0.1805768E+01  0.7243212E-01  0.3025647E+00
 -0.3865100E+01  0.9331180E+01 -0.2568960E-01  0.2908842E+00 -0.1807616E+01  0.6824498E-01  0.2827653E+00
 -0.4761110E+01  0.8907400E+01 -0.2568960E-01  0.2686070E+00 -0.1812960E+01  0.6441284E-01  0.2607694E+00
 -0.5611260E+01  0.8397840E+01 -0.2568960E-01  0.2442619E+00 -0.1823046E+01  0.6096355E-01  0.2365319E+00
 -0.6407370E+01  0.7807410E+01 -0.2568960E-01  0.2189684E+00 -0.1839994E+01  0.5823643E-01  0.2110822E+00
 -0.7141780E+01  0.7141780E+01 -0.2568960E-01  0.1932595E+00 -0.1867887E+01  0.5657474E-01  0.1847932E+00
 -0.7807410E+01  0.6407370E+01 -0.2568960E-01  0.1670544E+00 -0.1912629E+01  0.5599901E-01  0.1573890E+00
 -0.8397840E+01  0.5611260E+01 -0.2568960E-01  0.1406025E+00 -0.1984583E+01  0.5653341E-01  0.1287363E+00
 -0.8907410E+01  0.4761110E+01 -0.2568960E-01  0.1155243E+00 -0.2099210E+01  0.5824316E-01  0.9976775E-01
 -0.9331180E+01  0.3865100E+01 -0.2568960E-01  0.9394129E-01 -0.2280083E+01  0.6118328E-01  0.7128515E-01
 -0.9665100E+01  0.2931880E+01 -0.2568960E-01  0.7826467E-01 -0.2558500E+01  0.6533253E-01  0.4309314E-01
 -0.9905930E+01  0.1970410E+01 -0.2568960E-01  0.7225497E-01 -0.2933011E+01  0.7068889E-01  0.1496202E-01
 -0.1005140E+02  0.9899730E+00 -0.2568960E-01  0.7798652E-01  0.2981202E+01  0.7698556E-01 -0.1245477E-01
 -0.1010000E+02 -0.8829700E-06 -0.2568960E-01  0.9219674E-01  0.2714790E+01  0.8392613E-01 -0.3816601E-01
 -0.1005140E+02 -0.9899740E+00 -0.2568960E-01  0.1106472E+00  0.2543858E+01  0.9146241E-01 -0.6226907E-01
 -0.9905930E+01 -0.1970410E+01 -0.2568960E-01  0.1309591E+00  0.2434512E+01  0.9956316E-01 -0.8507328E-01
 -0.9665100E+01 -0.2931880E+01 -0.2568960E-01  0.1514630E+00  0.2362669E+01  0.1077917E+00 -0.1064048E+00
 -0.9331180E+01 -0.3865100E+01 -0.2568960E-01  0.1704724E+00  0.2316375E+01  0.1156479E+00 -0.1252454E+00
 -0.8907400E+01 -0.4761110E+01 -0.2568960E-01  0.1876166E+00  0.2286390E+01  0.1230888E+00 -0.1415950E+00
 -0.8397840E+01 -0.5611260E+01 -0.2568960E-01  0.2029624E+00  0.2266449E+01  0.1300759E+00 -0.1558012E+00
 -0.7807400E+01 -0.6407370E+01 -0.2568960E-01  0.2164396E+00  0.2251801E+01  0.1362648E+00 -0.1681606E+00
 -0.7141780E+01 -0.7141780E+01 -0.2568960E-01  0.2270230E+00  0.2242145E+01  0.1412180E+00 -0.1777552E+00
 -0.6407370E+01 -0.7807410E+01 -0.2568960E-01  0.2345614E+00  0.2236747E+01  0.1449137E+00 -0.1844425E+00
 -0.5611260E+01 -0.8397850E+01 -0.2568960E-01  0.2392808E+00  0.2234093E+01  0.1473294E+00 -0.1885453E+00
 -0.4761110E+01 -0.8907410E+01 -0.2568960E-01  0.2416564E+00  0.2232145E+01  0.1484209E+00 -0.1907067E+00
 -0.3865100E+01 -0.9331190E+01 -0.2568960E-01  0.2409701E+00  0.2232266E+01  0.1480224E+00 -0.1901472E+00
 -0.2931870E+01 -0.9665100E+01 -0.2568960E-01  0.2370213E+00  0.2235188E+01  0.1461426E+00 -0.1866050E+00
 -0.1970410E+01 -0.9905930E+01 -0.2568960E-01  0.2299848E+00  0.2240611E+01  0.1427840E+00 -0.1802935E+00
 -0.9899710E+00 -0.1005140E+02 -0.2568960E-01  0.2207141E+00  0.2247629E+01  0.1382392E+00 -0.1720600E+00
  0.1204410E-06 -0.1010000E+02 -0.2568960E-01  0.2089267E+00  0.2258933E+01  0.1326892E+00 -0.1613814E+00
  0.9899760E+00 -0.1005140E+02 -0.2568960E-01  0.1944081E+00  0.2277008E+01  0.1261624E+00 -0.1479107E+00
  0.1970410E+01 -0.9905930E+01 -0.2568960E-01  0.1773216E+00  0.2304149E+01  0.1186928E+00 -0.1317382E+00
  0.2931880E+01 -0.9665100E+01 -0.2568960E-01  0.1588244E+00  0.2342619E+01  0.1107709E+00 -0.1138201E+00
  0.3865100E+01 -0.9331180E+01 -0.2568960E-01  0.1393364E+00  0.2400710E+01  0.1028126E+00 -0.9404365E-01
  0.4761110E+01 -0.8907410E+01 -0.2568960E-01  0.1191281E+00  0.2491863E+01  0.9485544E-01 -0.7206902E-01
  0.5611260E+01 -0.8397840E+01 -0.2568960E-01  0.9924503E-01  0.2638490E+01  0.8694767E-01 -0.4785058E-01
  0.6407370E+01 -0.7807410E+01 -0.2568960E-01  0.8263740E-01  0.2866837E+01  0.7953779E-01 -0.2242052E-01
  0.7141780E+01 -0.7141780E+01 -0.2568960E-01  0.7312411E-01 -0.3088869E+01  0.7302250E-01  0.3853607E-02
  0.7807410E+01 -0.6407370E+01 -0.2568960E-01  0.7431278E-01 -0.2707625E+01  0.6742433E-01  0.3124658E-01
  0.8397840E+01 -0.5611260E+01 -0.2568960E-01  0.8676977E-01 -0.2379756E+01  0.6278396E-01  0.5989296E-01
  0.8907410E+01 -0.4761110E+01 -0.2568960E-01  0.1068072E+00 -0.2159005E+01  0.5926431E-01  0.8885674E-01
  0.9331180E+01 -0.3865100E+01 -0.2568960E-01  0.1304552E+00 -0.2023042E+01  0.5700714E-01  0.1173403E+00
  0.9665100E+01 -0.2931870E+01 -0.2568960E-01  0.1559412E+00 -0.1938123E+01  0.5600184E-01  0.1455385E+00
  0.9905930E+01 -0.1970410E+01 -0.2568960E-01  0.1825638E+00 -0.1884025E+01  0.5625376E-01  0.1736809E+00
  0.1005140E+02 -0.9899690E+00 -0.2568960E-01  0.2091884E+00 -0.1849608E+01  0.5757137E-01  0.2011103E+00
  0.1010000E+02  0.0000000E+00 -0.1027320E+00  0.2339382E+00 -0.1828372E+01  0.5959274E-01  0.2262207E+00
  0.1005140E+02  0.9899730E+00 -0.1027320E+00  0.2580222E+00 -0.1815941E+01  0.6262119E-01  0.2503079E+00
  0.9905930E+01  0.1970410E+01 -0.1027320E+00  0.2810057E+00 -0.1809563E+01  0.6645904E-01  0.2730337E+00
  0.9665100E+01  0.2931880E+01 -0.1027320E+00  0.3027304E+00 -0.1806520E+01  0.7070172E-01  0.2943586E+00
  0.9331180E+01  0.3865100E+01 -0.1027320E+00  0.3220027E+00 -0.1805792E+01  0.7497468E-01  0.3131526E+00
  0.8907400E+01  0.4761110E+01 -0.1027320E+00  0.3389112E+00 -0.1806810E+01  0.7924701E-01  0.3295159E+00
  0.8397840E+01  0.5611260E+01 -0.1027320E+00  0.3536423E+00 -0.1809038E+01  0.8345748E-01  0.3436535E+00
  0.7807410E+01  0.6407370E+01 -0.1027320E+00  0.3665842E+00 -0.1811203E+01  0.8728275E-01  0.3560417E+00
  0.7141780E+01  0.7141780E+01 -0.1027320E+00  0.3765978E+00 -0.1813111E+01  0.9036484E-01  0.3655955E+00
  0.6407370E+01  0.7807410E+01 -0.1027320E+00  0.3836851E+00 -0.1814861E+01  0.9271693E-01  0.3723142E+00
  0.5611260E+01  0.8397840E+01 -0.1027320E+00  0.3879872E+00 -0.1816236E+01  0.9427422E-01  0.3763595E+00
  0.4761110E+01  0.8907410E+01 -0.1027320E+00  0.3903051E+00 -0.1816630E+01  0.9498665E-01  0.3785704E+00
  0.3865100E+01  0.9331180E+01 -0.1027320E+00  0.3896628E+00 -0.1816336E+01  0.9471925E-01  0.3779753E+00
  0.2931870E+01  0.9665100E+01 -0.1027320E+00  0.3859733E+00 -0.1815541E+01  0.9352472E-01  0.3744709E+00
  0.1970410E+01  0.9905930E+01 -0.1027320E+00  0.3792856E+00 -0.1814072E+01  0.9136333E-01  0.3681172E+00
  0.9899730E+00  0.1005140E+02 -0.1027320E+00  0.3706599E+00 -0.1811829E+01  0.8847871E-01  0.3599449E+00
 -0.4414850E-06  0.1010000E+02 -0.1027320E+00  0.3594463E+00 -0.1809657E+01  0.8504356E-01  0.3492410E+00
 -0.9899740E+00  0.1005140E+02 -0.1027320E+00  0.3454734E+00 -0.1807828E+01  0.8112361E-01  0.3358137E+00
 -0.1970410E+01  0.9905930E+01 -0.1027320E+00  0.3287036E+00 -0.1806388E+01  0.7672561E-01  0.3196236E+00
 -0.2931880E+01  0.9665100E+01 -0.1027320E+00  0.3103049E+00 -0.1805761E+01  0.7224166E-01  0.3017785E+00
 -0.3865100E+01  0.9331180E+01 -0.1027320E+00  0.2900956E+00 -0.1807614E+01  0.6805956E-01  0.2819988E+00
 -0.4761110E+01  0.8907400E+01 -0.1027320E+00  0.2678882E+00 -0.1812914E+01  0.6422850E-01  0.2600746E+00
 -0.5611260E+01  0.8397840E+01 -0.1027320E+00  0.2435877E+00 -0.1823041E+01  0.6079417E-01  0.2358793E+00
 -0.6407370E+01  0.7807410E+01 -0.1027320E+00  0.2183932E+00 -0.1839919E+01  0.5806766E-01  0.2105320E+00
 -0.7141780E+01  0.7141780E+01 -0.1027320E+00  0.1927284E+00 -0.1867841E+01  0.5641066E-01  0.1842880E+00
 -0.7807410E+01  0.6407370E+01 -0.1027320E+00  0.1665876E+00 -0.1912533E+01  0.5582752E-01  0.1569545E+00
 -0.8397840E+01  0.5611260E+01 -0.1027320E+00  0.1402095E+00 -0.1984548E+01  0.5637079E-01  0.1283784E+00
 -0.8907410E+01  0.4761110E+01 -0.1027320E+00  0.1152043E+00 -0.2099038E+01  0.5806468E-01  0.9950132E-01
 -0.9331180E+01  0.3865100E+01 -0.1027320E+00  0.9367077E-01 -0.2280036E+01  0.6100377E-01  0.7108272E-01
 -0.9665100E+01  0.2931880E+01 -0.1027320E+00  0.7802291E-01 -0.2558685E+01  0.6513866E-01  0.4294799E-01
 -0.9905930E+01  0.1970410E+01 -0.1027320E+00  0.7204953E-01 -0.2933073E+01  0.7048882E-01  0.1491514E-01
 -0.1005140E+02  0.9899730E+00 -0.1027320E+00  0.7776125E-01  0.2980951E+01  0.7676006E-01 -0.1243802E-01
 -0.1010000E+02 -0.8829700E-06 -0.1027320E+00  0.9194575E-01  0.2714618E+01  0.8369111E-01 -0.3807648E-01
 -0.1005140E+02 -0.9899740E+00 -0.1027320E+00  0.1103702E+00  0.2543515E+01  0.9121206E-01 -0.6214448E-01
 -0.9905930E+01 -0.1970410E+01 -0.1027320E+00  0.1306050E+00  0.2434480E+01  0.9929129E-01 -0.8484641E-01
 -0.9665100E+01 -0.2931880E+01 -0.1027320E+00  0.1510753E+00  0.2362495E+01  0.1074973E+00 -0.1061512E+00
 -0.9331180E+01 -0.3865100E+01 -0.1027320E+00  0.1700253E+00  0.2316325E+01  0.1153384E+00 -0.1249225E+00
 -0.8907400E+01 -0.4761110E+01 -0.1027320E+00  0.1871578E+00  0.2286265E+01  0.1227701E+00 -0.1412641E+00
 -0.8397840E+01 -0.5611260E+01 -0.1027320E+00  0.2024167E+00  0.2266470E+01  0.1297295E+00 -0.1553795E+00
 -0.7807400E+01 -0.6407370E+01 -0.1027320E+00  0.2158990E+00  0.2251720E+01  0.1359107E+00 -0.1677517E+00
 -0.7141780E+01 -0.7141780E+01 -0.1027320E+00  0.2264296E+00  0.2242147E+01  0.1408492E+00 -0.1772904E+00
 -0.6407370E+01 -0.7807410E+01 -0.1027320E+00  0.2339840E+00  0.2236689E+01  0.1445462E+00 -0.1839970E+00
 -0.5611260E+01 -0.8397850E+01 -0.1027320E+00  0.2386379E+00  0.2234130E+01  0.1469407E+00 -0.1880333E+00
 -0.4761110E+01 -0.8907410E+01 -0.1027320E+00  0.2410587E+00  0.2232092E+01  0.1480438E+00 -0.1902428E+00
 -0.3865100E+01 -0.9331190E+01 -0.1027320E+00  0.2403403E+00  0.2232278E+01  0.1476378E+00 -0.1896485E+00
 -0.2931870E+01 -0.9665100E+01 -0.1027320E+00  0.2364329E+00  0.2235130E+01  0.1457690E+00 -0.1861502E+00
 -0.1970410E+01 -0.9905930E+01 -0.1027320E+00  0.2293670E+00  0.2240644E+01  0.1424062E+00 -0.1798046E+00
 -0.9899710E+00 -0.1005140E+02 -0.1027320E+00  0.2201722E+00  0.2247554E+01  0.1378869E+00 -0.1716479E+00
  0.1204410E-06 -0.1010000E+02 -0.1027320E+00  0.2083800E+00  0.2258920E+01  0.1323399E+00 -0.1609608E+00
  0.9899760E+00 -0.1005140E+02 -0.1027320E+00  0.1939193E+00  0.2276899E+01  0.1258290E+00 -0.1475526E+00
  0.1970410E+01 -0.9905930E+01 -0.1027320E+00  0.1768442E+00  0.2304154E+01  0.1183738E+00 -0.1313830E+00
  0.2931880E+01 -0.9665100E+01 -0.1027320E+00  0.1584357E+00  0.2342436E+01  0.1104790E+00 -0.1135617E+00
  0.3865100E+01 -0.9331180E+01 -0.1027320E+00  0.1389688E+00  0.2400622E+01  0.1025330E+00 -0.9380459E-01
  0.4761110E+01 -0.8907410E+01 -0.1027320E+00  0.1188150E+00  0.2491628E+01  0.9458926E-01 -0.7190182E-01
  0.5611260E+01 -0.8397840E+01 -0.1027320E+00  0.9897403E-01  0.2638423E+01  0.8670705E-01 -0.4772573E-01
  0.6407370E+01 -0.7807410E+01 -0.1027320E+00  0.8241519E-01  0.2866354E+01  0.7931310E-01 -0.2239856E-01
  0.7141780E+01 -0.7141780E+01 -0.1027320E+00  0.7291415E-01 -0.3089030E+01  0.7281344E-01  0.3830795E-02
  0.7807410E+01 -0.6407370E+01 -0.1027320E+00  0.7408965E-01 -0.2707620E+01  0.6722172E-01  0.3115314E-01
  0.8397840E+01 -0.5611260E+01 -0.1027320E+00  0.8652235E-01 -0.2379742E+01  0.6260410E-01  0.5972306E-01
  0.8907410E+01 -0.4761110E+01 -0.1027320E+00  0.1064900E+00 -0.2158958E+01  0.5908417E-01  0.8859562E-01
  0.9331180E+01 -0.3865100E+01 -0.1027320E+00  0.1300893E+00 -0.2022971E+01  0.5683899E-01  0.1170152E+00
  0.9665100E+01 -0.2931870E+01 -0.1027320E+00  0.1555234E+00 -0.1937986E+01  0.5583200E-01  0.1451562E+00
  0.9905930E+01 -0.1970410E+01 -0.1027320E+00  0.1820572E+00 -0.1884001E+01  0.5609340E-01  0.1732004E+00
  0.1005140E+02 -0.9899690E+00 -0.1027320E+00  0.2086175E+00 -0.1849528E+01  0.5739833E-01  0.2005659E+00
  0.1010000E+02  0.0000000E+00 -0.2310450E+00  0.2328996E+00 -0.1828332E+01  0.5931920E-01  0.2252187E+00
  0.1005140E+02  0.9899730E+00 -0.2310450E+00  0.2569034E+00 -0.1815906E+01  0.6234090E-01  0.2492248E+00
  0.9905930E+01  0.1970410E+01 -0.2310450E+00  0.2798146E+00 -0.1809476E+01  0.6615373E-01  0.2718822E+00
  0.9665100E+01  0.2931880E+01 -0.2310450E+00  0.3013909E+00 -0.1806477E+01  0.7037622E-01  0.2930592E+00
  0.9331180E+01  0.3865100E+01 -0.2310450E+00  0.3205893E+00 -0.1805771E+01  0.7463891E-01  0.3117796E+00
  0.8907400E+01  0.4761110E+01 -0.2310450E+00  0.3374445E+00 -0.1806798E+01  0.7890023E-01  0.3280908E+00
  0.8397840E+01  0.5611260E+01 -0.2310450E+00  0.3521635E+00 -0.1808992E+01  0.8309273E-01  0.3422202E+00
  0.7807410E+01  0.6407370E+01 -0.2310450E+00  0.3649808E+00 -0.1811177E+01  0.8689195E-01  0.3544866E+00
  0.7141780E+01  0.7141780E+01 -0.2310450E+00  0.3749530E+00 -0.1813099E+01  0.8996575E-01  0.3639999E+00
  0.6407370E+01  0.7807410E+01 -0.2310450E+00  0.3820215E+00 -0.1814853E+01  0.9231190E-01  0.3707006E+00
  0.5611260E+01  0.8397840E+01 -0.2310450E+00  0.3863713E+00 -0.1816208E+01  0.9387105E-01  0.3747946E+00
  0.4761110E+01  0.8907410E+01 -0.2310450E+00  0.3886094E+00 -0.1816618E+01  0.9456926E-01  0.3769269E+00
  0.3865100E+01  0.9331180E+01 -0.2310450E+00  0.3879611E+00 -0.1816327E+01  0.9430219E-01  0.3763255E+00
  0.2931870E+01  0.9665100E+01 -0.2310450E+00  0.3842922E+00 -0.1815525E+01  0.9311122E-01  0.3728416E+00
  0.1970410E+01  0.9905930E+01 -0.2310450E+00  0.3777038E+00 -0.1814039E+01  0.9097048E-01  0.3665849E+00
  0.9899730E+00  0.1005140E+02 -0.2310450E+00  0.3690546E+00 -0.1811822E+01  0.8809278E-01  0.3583867E+00
 -0.4414850E-06  0.1010000E+02 -0.2310450E+00  0.3578734E+00 -0.1809643E+01  0.8466630E-01  0.3477139E+00
 -0.9899740E+00  0.1005140E+02 -0.2310450E+00  0.3439561E+00 -0.1807797E+01  0.8075669E-01  0.3343414E+00
 -0.1970410E+01  0.9905930E+01 -0.2310450E+00  0.3273237E+00 -0.1806329E+01  0.7638465E-01  0.3182863E+00
 -0.2931880E+01  0.9665100E+01 -0.2310450E+00  0.3089613E+00 -0.1805743E+01  0.7192350E-01  0.3004731E+00
 -0.3865100E+01  0.9331180E+01 -0.2310450E+00  0.2888183E+00 -0.1807585E+01  0.6775172E-01  0.2807592E+00
 -0.4761110E+01  0.8907400E+01 -0.2310450E+00  0.2666928E+00 -0.1812865E+01  0.6392939E-01  0.2589172E+00
 -0.5611260E+01  0.8397840E+01 -0.2310450E+00  0.2425453E+00 -0.1822930E+01  0.6050801E-01  0.2348765E+00
 -0.6407370E+01  0.7807410E+01 -0.2310450E+00  0.2174435E+00 -0.1839865E+01  0.5780383E-01  0.2096197E+00
 -0.7141780E+01  0.7141780E+01 -0.2310450E+00  0.1918651E+00 -0.1867793E+01  0.5614933E-01  0.1834652E+00
 -0.7807410E+01  0.6407370E+01 -0.2310450E+00  0.1658177E+00 -0.1912501E+01  0.5556442E-01  0.1562309E+00
 -0.8397840E+01  0.5611260E+01 -0.2310450E+00  0.1395731E+00 -0.1984394E+01  0.5609531E-01  0.1278044E+00
 -0.8907410E+01  0.4761110E+01 -0.2310450E+00  0.1146872E+00 -0.2098922E+01  0.5779262E-01  0.9906147E-01
 -0.9331180E+01  0.3865100E+01 -0.2310450E+00  0.9322900E-01 -0.2280101E+01  0.6072062E-01  0.7074358E-01
 -0.9665100E+01  0.2931880E+01 -0.2310450E+00  0.7764080E-01 -0.2559155E+01  0.6483970E-01  0.4270723E-01
 -0.9905930E+01  0.1970410E+01 -0.2310450E+00  0.7169719E-01 -0.2933773E+01  0.7015450E-01  0.1479304E-01
 -0.1005140E+02  0.9899730E+00 -0.2310450E+00  0.7740287E-01  0.2980630E+01  0.7640232E-01 -0.1240521E-01
 -0.1010000E+02 -0.8829700E-06 -0.2310450E+00  0.9154674E-01  0.2714157E+01  0.8331044E-01 -0.3794964E-01
 -0.1005140E+02 -0.9899740E+00 -0.2310450E+00  0.1099175E+00  0.2543004E+01  0.9080637E-01 -0.6193602E-01
 -0.9905930E+01 -0.1970410E+01 -0.2310450E+00  0.1300858E+00  0.2433861E+01  0.9884413E-01 -0.8457036E-01
 -0.9665100E+01 -0.2931880E+01 -0.2310450E+00  0.1504282E+00  0.2362217E+01  0.1070075E+00 -0.1057262E+00
 -0.9331180E+01 -0.3865100E+01 -0.2310450E+00  0.1693102E+00  0.2316082E+01  0.1148231E+00 -0.1244250E+00
 -0.8907400E+01 -0.4761110E+01 -0.2310450E+00  0.1863892E+00  0.2286018E+01  0.1222312E+00 -0.1407142E+00
 -0.8397840E+01 -0.5611260E+01 -0.2310450E+00  0.2016265E+00  0.2266093E+01  0.1291646E+00 -0.1548216E+00
 -0.7807400E+01 -0.6407370E+01 -0.2310450E+00  0.2149891E+00  0.2251515E+01  0.1353038E+00 -0.1670724E+00
 -0.7141780E+01 -0.7141780E+01 -0.2310450E+00  0.2254772E+00  0.2241970E+01  0.1402255E+00 -0.1765695E+00
 -0.6407370E+01 -0.7807410E+01 -0.2310450E+00  0.2330122E+00  0.2236503E+01  0.1439119E+00 -0.1832596E+00
 -0.5611260E+01 -0.8397850E+01 -0.2310450E+00  0.2377068E+00  0.2233823E+01  0.1463098E+00 -0.1873445E+00
 -0.4761110E+01 -0.8907410E+01 -0.2310450E+00  0.2400519E+00  0.2231913E+01  0.1473915E+00 -0.1894747E+00
 -0.3865100E+01 -0.9331190E+01 -0.2310450E+00  0.2393293E+00  0.2232113E+01  0.1469857E+00 -0.1888749E+00
 -0.2931870E+01 -0.9665100E+01 -0.2310450E+00  0.2354422E+00  0.2234945E+01  0.1451240E+00 -0.1853970E+00
 -0.1970410E+01 -0.9905930E+01 -0.2310450E+00  0.2284719E+00  0.2240320E+01  0.1417925E+00 -0.1791488E+00
 -0.9899710E+00 -0.1005140E+02 -0.2310450E+00  0.2192614E+00  0.2247356E+01  0.1372826E+00 -0.1709650E+00
  0.1204410E-06 -0.1010000E+02 -0.2310450E+00  0.2075038E+00  0.2258728E+01  0.1317526E+00 -0.1603093E+00
  0.9899760E+00 -0.1005140E+02 -0.2310450E+00  0.1930981E+00  0.2276674E+01  0.1252631E+00 -0.1469558E+00
  0.1970410E+01 -0.9905930E+01 -0.2310450E+00  0.1761522E+00  0.2303712E+01  0.1178528E+00 -0.1309210E+00
  0.2931880E+01 -0.9665100E+01 -0.2310450E+00  0.1577884E+00  0.2342126E+01  0.1099926E+00 -0.1131318E+00
  0.3865100E+01 -0.9331180E+01 -0.2310450E+00  0.1383825E+00  0.2400318E+01  0.1020721E+00 -0.9343983E-01
  0.4761110E+01 -0.8907410E+01 -0.2310450E+00  0.1182980E+00  0.2491302E+01  0.9415431E-01 -0.7161975E-01
  0.5611260E+01 -0.8397840E+01 -0.2310450E+00  0.9856367E-01  0.2637610E+01  0.8630888E-01 -0.4759804E-01
  0.6407370E+01 -0.7807410E+01 -0.2310450E+00  0.8206180E-01  0.2865619E+01  0.7895662E-01 -0.2236048E-01
  0.7141780E+01 -0.7141780E+01 -0.2310450E+00  0.7257791E-01 -0.3089505E+01  0.7247947E-01  0.3778690E-02
  0.7807410E+01 -0.6407370E+01 -0.2310450E+00  0.7374023E-01 -0.2707674E+01  0.6690637E-01  0.3100257E-01
  0.8397840E+01 -0.5611260E+01 -0.2310450E+00  0.8609606E-01 -0.2379843E+01  0.6230168E-01  0.5942249E-01
  0.8907410E+01 -0.4761110E+01 -0.2310450E+00  0.1059758E+00 -0.2159075E+01  0.5880914E-01  0.8816095E-01
  0.9331180E+01 -0.3865100E+01 -0.2310450E+00  0.1294923E+00 -0.2022940E+01  0.5657452E-01  0.1164799E+00
  0.9665100E+01 -0.2931870E+01 -0.2310450E+00  0.1548386E+00 -0.1937894E+01  0.5557276E-01  0.1445222E+00
  0.9905930E+01 -0.1970410E+01 -0.2310450E+00  0.1812571E+00 -0.1883852E+01  0.5582133E-01  0.1724474E+00
  0.1005140E+02 -0.9899690E+00 -0.2310450E+00  0.2076703E+00 -0.1849479E+01  0.5712786E-01  0.1996582E+00
  0.1010000E+02  0.0000000E+00 -0.4105000E+00  0.2314679E+00 -0.1828287E+01  0.5894442E-01  0.2238369E+00
  0.1005140E+02  0.9899730E+00 -0.4105000E+00  0.2553368E+00 -0.1815900E+01  0.6195935E-01  0.2477053E+00
  0.9905930E+01  0.1970410E+01 -0.4105000E+00  0.2781355E+00 -0.1809406E+01  0.6573783E-01  0.2702553E+00
  0.9665100E+01  0.2931880E+01 -0.4105000E+00  0.2995169E+00 -0.1806448E+01  0.6993025E-01  0.2912390E+00
  0.9331180E+01  0.3865100E+01 -0.4105000E+00  0.3186425E+00 -0.1805741E+01  0.7417659E-01  0.3098885E+00
  0.8907400E+01  0.4761110E+01 -0.4105000E+00  0.3353880E+00 -0.1806799E+01  0.7841986E-01  0.3260911E+00
  0.8397840E+01  0.5611260E+01 -0.4105000E+00  0.3500729E+00 -0.1808948E+01  0.8258458E-01  0.3401923E+00
  0.7807410E+01  0.6407370E+01 -0.4105000E+00  0.3627357E+00 -0.1811153E+01  0.8634904E-01  0.3523081E+00
  0.7141780E+01  0.7141780E+01 -0.4105000E+00  0.3726864E+00 -0.1813079E+01  0.8941483E-01  0.3618013E+00
  0.6407370E+01  0.7807410E+01 -0.4105000E+00  0.3796901E+00 -0.1814847E+01  0.9174637E-01  0.3684388E+00
  0.5611260E+01  0.8397840E+01 -0.4105000E+00  0.3840856E+00 -0.1816176E+01  0.9330370E-01  0.3725804E+00
  0.4761110E+01  0.8907410E+01 -0.4105000E+00  0.3862321E+00 -0.1816606E+01  0.9398625E-01  0.3746223E+00
  0.3865100E+01  0.9331180E+01 -0.4105000E+00  0.3856190E+00 -0.1816309E+01  0.9372614E-01  0.3740554E+00
  0.2931870E+01  0.9665100E+01 -0.4105000E+00  0.3819375E+00 -0.1815507E+01  0.9253428E-01  0.3705586E+00
  0.1970410E+01  0.9905930E+01 -0.4105000E+00  0.3754679E+00 -0.1814004E+01  0.9041914E-01  0.3644181E+00
  0.9899730E+00  0.1005140E+02 -0.4105000E+00  0.3668047E+00 -0.1811819E+01  0.8755486E-01  0.3562019E+00
 -0.4414850E-06  0.1010000E+02 -0.4105000E+00  0.3557077E+00 -0.1809620E+01  0.8414599E-01  0.3456116E+00
 -0.9899740E+00  0.1005140E+02 -0.4105000E+00  0.3418333E+00 -0.1807769E+01  0.8024909E-01  0.3322801E+00
 -0.1970410E+01  0.9905930E+01 -0.4105000E+00  0.3253745E+00 -0.1806277E+01  0.7591318E-01  0.3163950E+00
 -0.2931880E+01  0.9665100E+01 -0.4105000E+00  0.3070794E+00 -0.1805744E+01  0.7148572E-01  0.2986429E+00
 -0.3865100E+01  0.9331180E+01 -0.4105000E+00  0.2870575E+00 -0.1807551E+01  0.6732904E-01  0.2790498E+00
 -0.4761110E+01  0.8907400E+01 -0.4105000E+00  0.2650242E+00 -0.1812839E+01  0.6352269E-01  0.2572989E+00
 -0.5611260E+01  0.8397840E+01 -0.4105000E+00  0.2410787E+00 -0.1822845E+01  0.6012212E-01  0.2334615E+00
 -0.6407370E+01  0.7807410E+01 -0.4105000E+00  0.2161151E+00 -0.1839850E+01  0.5744751E-01  0.2083399E+00
 -0.7141780E+01  0.7141780E+01 -0.4105000E+00  0.1906738E+00 -0.1867747E+01  0.5579219E-01  0.1823287E+00