 VARIABLES="X" "Y" "Z" "abs(eta) (m)" "angle(phi) (rad)" "PRE1" "PRE2"
ZONE N=   3200 ,E =    3136 ,F=FEPOINT,ET=QUADRILATERAL
  0.1100000E+02  0.0000000E+00  0.0000000E+00  0.9023825E-01  0.2492512E+01  0.7188740E-01 -0.5454488E-01
  0.1094700E+02  0.1078190E+01  0.0000000E+00  0.7743827E-01  0.2632814E+01  0.6762996E-01 -0.3772100E-01
  0.1078860E+02  0.2145990E+01  0.0000000E+00  0.6661686E-01  0.2841992E+01  0.6364937E-01 -0.1966124E-01
  0.1052630E+02  0.3193130E+01  0.0000000E+00  0.6002299E-01  0.3126300E+01  0.6001597E-01 -0.9178953E-03
  0.1016270E+02  0.4209520E+01  0.0000000E+00  0.5985837E-01 -0.2826107E+01  0.5690412E-01  0.1857273E-01
  0.9701130E+01  0.5185360E+01  0.0000000E+00  0.6669099E-01 -0.2524632E+01  0.5439586E-01  0.3858468E-01
  0.9146170E+01  0.6111270E+01  0.0000000E+00  0.7899784E-01 -0.2298727E+01  0.5255933E-01  0.5897605E-01
  0.8503110E+01  0.6978330E+01  0.0000000E+00  0.9457415E-01 -0.2144481E+01  0.5132827E-01  0.7943349E-01
  0.7778170E+01  0.7778170E+01  0.0000000E+00  0.1119072E+00 -0.2042177E+01  0.5081896E-01  0.9970282E-01
  0.6978330E+01  0.8503110E+01  0.0000000E+00  0.1300419E+00 -0.1973843E+01  0.5100532E-01  0.1196217E+00
  0.6111270E+01  0.9146170E+01  0.0000000E+00  0.1483301E+00 -0.1927891E+01  0.5184940E-01  0.1389729E+00
  0.5185360E+01  0.9701130E+01  0.0000000E+00  0.1664827E+00 -0.1896022E+01  0.5319503E-01  0.1577554E+00
  0.4209520E+01  0.1016270E+02  0.0000000E+00  0.1838852E+00 -0.1874751E+01  0.5503608E-01  0.1754560E+00
  0.3193130E+01  0.1052630E+02  0.0000000E+00  0.2003826E+00 -0.1860598E+01  0.5726168E-01  0.1920268E+00
  0.2145990E+01  0.1078860E+02  0.0000000E+00  0.2156706E+00 -0.1851536E+01  0.5975507E-01  0.2072273E+00
  0.1078190E+01  0.1094700E+02  0.0000000E+00  0.2299912E+00 -0.1845411E+01  0.6236820E-01  0.2213733E+00
 -0.4808250E-06  0.1100000E+02  0.0000000E+00  0.2426533E+00 -0.1841918E+01  0.6498556E-01  0.2337894E+00
 -0.1078190E+01  0.1094700E+02  0.0000000E+00  0.2536910E+00 -0.1840051E+01  0.6748501E-01  0.2445504E+00
 -0.2145990E+01  0.1078860E+02  0.0000000E+00  0.2628459E+00 -0.1839353E+01  0.6974352E-01  0.2534242E+00
 -0.3193130E+01  0.1052630E+02  0.0000000E+00  0.2706512E+00 -0.1838952E+01  0.7171005E-01  0.2609785E+00
 -0.4209520E+01  0.1016270E+02  0.0000000E+00  0.2763450E+00 -0.1839011E+01  0.7323428E-01  0.2664644E+00
 -0.5185370E+01  0.9701130E+01  0.0000000E+00  0.2800719E+00 -0.1839146E+01  0.7425833E-01  0.2700481E+00
 -0.6111270E+01  0.9146160E+01  0.0000000E+00  0.2816089E+00 -0.1839361E+01  0.7472434E-01  0.2715140E+00
 -0.6978330E+01  0.8503120E+01  0.0000000E+00  0.2816615E+00 -0.1839230E+01  0.7470281E-01  0.2715745E+00
 -0.7778170E+01  0.7778170E+01  0.0000000E+00  0.2795051E+00 -0.1839127E+01  0.7410298E-01  0.2695029E+00
 -0.8503120E+01  0.6978330E+01  0.0000000E+00  0.2753484E+00 -0.1838983E+01  0.7296278E-01  0.2655055E+00
 -0.9146170E+01  0.6111270E+01  0.0000000E+00  0.2690353E+00 -0.1839111E+01  0.7132311E-01  0.2594090E+00
 -0.9701130E+01  0.5185360E+01  0.0000000E+00  0.2613273E+00 -0.1839307E+01  0.6932901E-01  0.2519632E+00
 -0.1016270E+02  0.4209520E+01  0.0000000E+00  0.2516465E+00 -0.1840320E+01  0.6700644E-01  0.2425616E+00
 -0.1052630E+02  0.3193130E+01  0.0000000E+00  0.2402478E+00 -0.1842477E+01  0.6447075E-01  0.2314358E+00
 -0.1078860E+02  0.2145990E+01  0.0000000E+00  0.2270687E+00 -0.1846601E+01  0.6183559E-01  0.2184869E+00
 -0.1094700E+02  0.1078190E+01  0.0000000E+00  0.2128228E+00 -0.1852835E+01  0.5923170E-01  0.2044142E+00
 -0.1100000E+02 -0.9616510E-06  0.0000000E+00  0.1971987E+00 -0.1862931E+01  0.5679275E-01  0.1888436E+00
 -0.1094700E+02 -0.1078190E+01  0.0000000E+00  0.1804853E+00 -0.1878382E+01  0.5464343E-01  0.1720147E+00
 -0.1078860E+02 -0.2146000E+01  0.0000000E+00  0.1627867E+00 -0.1901794E+01  0.5290345E-01  0.1539504E+00
 -0.1052630E+02 -0.3193130E+01  0.0000000E+00  0.1447166E+00 -0.1935410E+01  0.5160424E-01  0.1352032E+00
 -0.1016270E+02 -0.4209520E+01  0.0000000E+00  0.1264139E+00 -0.1985280E+01  0.5090901E-01  0.1157097E+00
 -0.9701130E+01 -0.5185360E+01  0.0000000E+00  0.1083792E+00 -0.2059435E+01  0.5087580E-01  0.9569585E-01
 -0.9146160E+01 -0.6111270E+01  0.0000000E+00  0.9125874E-01 -0.2171102E+01  0.5155159E-01  0.7530333E-01
 -0.8503110E+01 -0.6978330E+01  0.0000000E+00  0.7616010E-01 -0.2337581E+01  0.5284164E-01  0.5484634E-01
 -0.7778170E+01 -0.7778180E+01  0.0000000E+00  0.6482796E-01 -0.2578999E+01  0.5483631E-01  0.3457809E-01
 -0.6978330E+01 -0.8503110E+01  0.0000000E+00  0.5932764E-01 -0.2891881E+01  0.5748753E-01  0.1466129E-01
 -0.6111270E+01 -0.9146170E+01  0.0000000E+00  0.6091381E-01  0.3064578E+01  0.6073325E-01 -0.4686628E-02
 -0.5185360E+01 -0.9701130E+01  0.0000000E+00  0.6854489E-01  0.2792194E+01  0.6440332E-01 -0.2346517E-01
 -0.4209510E+01 -0.1016270E+02  0.0000000E+00  0.7987631E-01  0.2600219E+01  0.6845412E-01 -0.4116137E-01
 -0.3193130E+01 -0.1052630E+02  0.0000000E+00  0.9287775E-01  0.2470893E+01  0.7275924E-01 -0.5772668E-01
 -0.2145990E+01 -0.1078860E+02  0.0000000E+00  0.1061790E+00  0.2384544E+01  0.7717789E-01 -0.7292148E-01
 -0.1078190E+01 -0.1094700E+02  0.0000000E+00  0.1193007E+00  0.2323605E+01  0.8156481E-01 -0.8706222E-01
  0.1311740E-06 -0.1100000E+02  0.0000000E+00  0.1313387E+00  0.2282306E+01  0.8576128E-01 -0.9947295E-01
  0.1078190E+01 -0.1094700E+02  0.0000000E+00  0.1420759E+00  0.2253534E+01  0.8963840E-01 -0.1102294E+00
  0.2145990E+01 -0.1078860E+02  0.0000000E+00  0.1511396E+00  0.2234037E+01  0.9305266E-01 -0.1190982E+00
  0.3193140E+01 -0.1052630E+02  0.0000000E+00  0.1589045E+00  0.2219260E+01  0.9597233E-01 -0.1266489E+00
  0.4209520E+01 -0.1016270E+02  0.0000000E+00  0.1646297E+00  0.2209953E+01  0.9820478E-01 -0.1321316E+00
  0.5185360E+01 -0.9701130E+01  0.0000000E+00  0.1683962E+00  0.2204367E+01  0.9969496E-01 -0.1357136E+00
  0.6111270E+01 -0.9146160E+01  0.0000000E+00  0.1699774E+00  0.2202472E+01  0.1003714E+00 -0.1371784E+00
  0.6978330E+01 -0.8503110E+01  0.0000000E+00  0.1700065E+00  0.2202099E+01  0.1003372E+00 -0.1372394E+00
  0.7778180E+01 -0.7778170E+01  0.0000000E+00  0.1678220E+00  0.2205194E+01  0.9946685E-01 -0.1351686E+00
  0.8503120E+01 -0.6978320E+01  0.0000000E+00  0.1636259E+00  0.2211509E+01  0.9781022E-01 -0.1311740E+00
  0.9146170E+01 -0.6111270E+01  0.0000000E+00  0.1573115E+00  0.2222401E+01  0.9540357E-01 -0.1250803E+00
  0.9701130E+01 -0.5185360E+01  0.0000000E+00  0.1496085E+00  0.2236780E+01  0.9243311E-01 -0.1176385E+00
  0.1016270E+02 -0.4209520E+01  0.0000000E+00  0.1400710E+00  0.2258411E+01  0.8890252E-01 -0.1082416E+00
  0.1052630E+02 -0.3193130E+01  0.0000000E+00  0.1290285E+00  0.2289426E+01  0.8494639E-01 -0.9712082E-01
  0.1078860E+02 -0.2145990E+01  0.0000000E+00  0.1166002E+00  0.2335007E+01  0.8068354E-01 -0.8417699E-01
  0.1094700E+02 -0.1078180E+01  0.0000000E+00  0.1036112E+00  0.2398368E+01  0.7628798E-01 -0.7011016E-01
  0.1100000E+02  0.0000000E+00 -0.2568960E-01  0.9018137E-01  0.2492418E+01  0.7183693E-01 -0.5451729E-01
  0.1094700E+02  0.1078190E+01 -0.2568960E-01  0.7738884E-01  0.2632690E+01  0.6758210E-01 -0.3770532E-01
  0.1078860E+02  0.2145990E+01 -0.2568960E-01  0.6657302E-01  0.2841788E+01  0.6360348E-01 -0.1966127E-01
  0.1052630E+02  0.3193130E+01 -0.2568960E-01  0.5998081E-01  0.3126162E+01  0.5997367E-01 -0.9255216E-03
  0.1016270E+02  0.4209520E+01 -0.2568960E-01  0.5981481E-01 -0.2826184E+01  0.5686412E-01  0.1855488E-01
  0.9701130E+01  0.5185360E+01 -0.2568960E-01  0.6664192E-01 -0.2524663E+01  0.5435706E-01  0.3855457E-01
  0.9146170E+01  0.6111270E+01 -0.2568960E-01  0.7893913E-01 -0.2298722E+01  0.5251998E-01  0.5893249E-01
  0.8503110E+01  0.6978330E+01 -0.2568960E-01  0.9450702E-01 -0.2144477E+01  0.5129152E-01  0.7937730E-01
  0.7778170E+01  0.7778170E+01 -0.2568960E-01  0.1118301E+00 -0.2042170E+01  0.5078323E-01  0.9963448E-01
  0.6978330E+01  0.8503110E+01 -0.2568960E-01  0.1299549E+00 -0.1973824E+01  0.5096893E-01  0.1195426E+00
  0.6111270E+01  0.9146170E+01 -0.2568960E-01  0.1482347E+00 -0.1927855E+01  0.5181103E-01  0.1388854E+00
  0.5185360E+01  0.9701130E+01 -0.2568960E-01  0.1663727E+00 -0.1896004E+01  0.5315696E-01  0.1576522E+00
  0.4209520E+01  0.1016270E+02 -0.2568960E-01  0.1837638E+00 -0.1874736E+01  0.5499718E-01  0.1753409E+00
  0.3193130E+01  0.1052630E+02 -0.2568960E-01  0.2002531E+00 -0.1860579E+01  0.5722118E-01  0.1919037E+00
  0.2145990E+01  0.1078860E+02 -0.2568960E-01  0.2155375E+00 -0.1851508E+01  0.5971242E-01  0.2071010E+00
  0.1078190E+01  0.1094700E+02 -0.2568960E-01  0.2298427E+00 -0.1845394E+01  0.6232406E-01  0.2212315E+00
 -0.4808250E-06  0.1100000E+02 -0.2568960E-01  0.2424945E+00 -0.1841903E+01  0.6493953E-01  0.2336374E+00
 -0.1078190E+01  0.1094700E+02 -0.2568960E-01  0.2535292E+00 -0.1840033E+01  0.6743760E-01  0.2443956E+00
 -0.2145990E+01  0.1078860E+02 -0.2568960E-01  0.2626863E+00 -0.1839330E+01  0.6969530E-01  0.2532719E+00
 -0.3193130E+01  0.1052630E+02 -0.2568960E-01  0.2704783E+00 -0.1838934E+01  0.7165956E-01  0.2608130E+00
 -0.4209520E+01  0.1016270E+02 -0.2568960E-01  0.2761647E+00 -0.1838995E+01  0.7318228E-01  0.2662918E+00
 -0.5185370E+01  0.9701130E+01 -0.2568960E-01  0.2798932E+00 -0.1839128E+01  0.7420625E-01  0.2698771E+00
 -0.6111270E+01  0.9146160E+01 -0.2568960E-01  0.2814390E+00 -0.1839339E+01  0.7467323E-01  0.2713519E+00
 -0.6978330E+01  0.8503120E+01 -0.2568960E-01  0.2814816E+00 -0.1839213E+01  0.7465040E-01  0.2714023E+00
 -0.7778170E+01  0.7778170E+01 -0.2568960E-01  0.2793233E+00 -0.1839110E+01  0.7405035E-01  0.2693289E+00
 -0.8503120E+01  0.6978330E+01 -0.2568960E-01  0.2751727E+00 -0.1838965E+01  0.7291148E-01  0.2653374E+00
 -0.9146170E+01  0.6111270E+01 -0.2568960E-01  0.2688724E+00 -0.1839088E+01  0.7127405E-01  0.2592534E+00
 -0.9701130E+01  0.5185360E+01 -0.2568960E-01  0.2611606E+00 -0.1839289E+01  0.6928036E-01  0.2518036E+00
 -0.1016270E+02  0.4209520E+01 -0.2568960E-01  0.2514823E+00 -0.1840304E+01  0.6695890E-01  0.2424044E+00
 -0.1052630E+02  0.3193130E+01 -0.2568960E-01  0.2400935E+00 -0.1842459E+01  0.6442505E-01  0.2312883E+00
 -0.1078860E+02  0.2145990E+01 -0.2568960E-01  0.2269289E+00 -0.1846575E+01  0.6179180E-01  0.2183541E+00
 -0.1094700E+02  0.1078190E+01 -0.2568960E-01  0.2126861E+00 -0.1852817E+01  0.5918985E-01  0.2042839E+00
 -0.1100000E+02 -0.9616510E-06 -0.2568960E-01  0.1970687E+00 -0.1862917E+01  0.5675260E-01  0.1887199E+00
 -0.1094700E+02 -0.1078190E+01 -0.2568960E-01  0.1803668E+00 -0.1878363E+01  0.5460439E-01  0.1719027E+00
 -0.1078860E+02 -0.2146000E+01 -0.2568960E-01  0.1626830E+00 -0.1901759E+01  0.5286451E-01  0.1538542E+00
 -0.1052630E+02 -0.3193130E+01 -0.2568960E-01  0.1446206E+00 -0.1935391E+01  0.5156742E-01  0.1351145E+00
 -0.1016270E+02 -0.4209520E+01 -0.2568960E-01  0.1263277E+00 -0.1985269E+01  0.5087313E-01  0.1156314E+00
 -0.9701130E+01 -0.5185360E+01 -0.2568960E-01  0.1083037E+00 -0.2059424E+01  0.5083932E-01  0.9562978E-01
 -0.9146160E+01 -0.6111270E+01 -0.2568960E-01  0.9119349E-01 -0.2171079E+01  0.5151299E-01  0.7525068E-01
 -0.8503110E+01 -0.6978330E+01 -0.2568960E-01  0.7610501E-01 -0.2337589E+01  0.5280385E-01  0.5480626E-01
 -0.7778170E+01 -0.7778180E+01 -0.2568960E-01  0.6478041E-01 -0.2579046E+01  0.5479771E-01  0.3455013E-01
 -0.6978330E+01 -0.8503110E+01 -0.2568960E-01  0.5928394E-01 -0.2891990E+01  0.5744677E-01  0.1464425E-01
 -0.6111270E+01 -0.9146170E+01 -0.2568960E-01  0.6087041E-01  0.3064386E+01  0.6068908E-01 -0.4694933E-02
 -0.5185360E+01 -0.9701130E+01 -0.2568960E-01  0.6849959E-01  0.2792063E+01  0.6435767E-01 -0.2345812E-01
 -0.4209510E+01 -0.1016270E+02 -0.2568960E-01  0.7982522E-01  0.2600116E+01  0.6840613E-01 -0.4114204E-01
 -0.3193130E+01 -0.1052630E+02 -0.2568960E-01  0.9282121E-01  0.2470778E+01  0.7270832E-01 -0.5769988E-01
 -0.2145990E+01 -0.1078860E+02 -0.2568960E-01  0.1061193E+00  0.2384398E+01  0.7712387E-01 -0.7289179E-01
 -0.1078190E+01 -0.1094700E+02 -0.2568960E-01  0.1192282E+00  0.2323516E+01  0.8150755E-01 -0.8701660E-01
  0.1311740E-06 -0.1100000E+02 -0.2568960E-01  0.1312574E+00  0.2282234E+01  0.8570108E-01 -0.9941746E-01
  0.1078190E+01 -0.1094700E+02 -0.2568960E-01  0.1419910E+00  0.2253454E+01  0.8957604E-01 -0.1101707E+00
  0.2145990E+01 -0.1078860E+02 -0.2568960E-01  0.1510567E+00  0.2233932E+01  0.9298921E-01 -0.1190426E+00
  0.3193140E+01 -0.1052630E+02 -0.2568960E-01  0.1588086E+00  0.2219189E+01  0.9590545E-01 -0.1265793E+00
  0.4209520E+01 -0.1016270E+02 -0.2568960E-01  0.1645275E+00  0.2209893E+01  0.9813581E-01 -0.1320556E+00
  0.5185360E+01 -0.9701130E+01 -0.2568960E-01  0.1682949E+00  0.2204299E+01  0.9962576E-01 -0.1356388E+00
  0.6111270E+01 -0.9146160E+01 -0.2568960E-01  0.1698842E+00  0.2202379E+01  0.1003035E+00 -0.1371125E+00
  0.6978330E+01 -0.8503110E+01 -0.2568960E-01  0.1699043E+00  0.2202030E+01  0.1002676E+00 -0.1371637E+00
  0.7778180E+01 -0.7778170E+01 -0.2568960E-01  0.1677178E+00  0.2205134E+01  0.9939699E-01 -0.1350908E+00
  0.8503120E+01 -0.6978320E+01 -0.2568960E-01  0.1635274E+00  0.2211440E+01  0.9774218E-01 -0.1311018E+00
  0.9146170E+01 -0.6111270E+01 -0.2568960E-01  0.1572253E+00  0.2222301E+01  0.9533880E-01 -0.1250212E+00
  0.9701130E+01 -0.5185360E+01 -0.2568960E-01  0.1495190E+00  0.2236704E+01  0.9236885E-01 -0.1175752E+00
  0.1016270E+02 -0.4209520E+01 -0.2568960E-01  0.1399841E+00  0.2258344E+01  0.8884005E-01 -0.1081804E+00
  0.1052630E+02 -0.3193130E+01 -0.2568960E-01  0.1289504E+00  0.2289342E+01  0.8488684E-01 -0.9706924E-01
  0.1078860E+02 -0.2145990E+01 -0.2568960E-01  0.1165354E+00  0.2334872E+01  0.8062737E-01 -0.8414108E-01
  0.1094700E+02 -0.1078180E+01 -0.2568960E-01  0.1035488E+00  0.2398264E+01  0.7623472E-01 -0.7007586E-01
  0.1100000E+02  0.0000000E+00 -0.1027320E+00  0.9000068E-01  0.2492270E+01  0.7168498E-01 -0.5441863E-01
  0.1094700E+02  0.1078190E+01 -0.1027320E+00  0.7723359E-01  0.2632424E+01  0.6743652E-01 -0.3764761E-01
  0.1078860E+02  0.2145990E+01 -0.1027320E+00  0.6643600E-01  0.2841257E+01  0.6346214E-01 -0.1965449E-01
  0.1052630E+02  0.3193130E+01 -0.1027320E+00  0.5984934E-01  0.3125875E+01  0.5984195E-01 -0.9406577E-03
  0.1016270E+02  0.4209520E+01 -0.1027320E+00  0.5968240E-01 -0.2826295E+01  0.5674029E-01  0.1850750E-01
  0.9701130E+01  0.5185360E+01 -0.1027320E+00  0.6649134E-01 -0.2524690E+01  0.5423529E-01  0.3846599E-01
  0.9146170E+01  0.6111270E+01 -0.1027320E+00  0.7876009E-01 -0.2298651E+01  0.5239669E-01  0.5880255E-01
  0.8503110E+01  0.6978330E+01 -0.1027320E+00  0.9430241E-01 -0.2144420E+01  0.5117594E-01  0.7920838E-01
  0.7778170E+01  0.7778170E+01 -0.1027320E+00  0.1115930E+00 -0.2042131E+01  0.5067173E-01  0.9942526E-01
  0.6978330E+01  0.8503110E+01 -0.1027320E+00  0.1296864E+00 -0.1973752E+01  0.5085507E-01  0.1192993E+00
  0.6111270E+01  0.9146170E+01 -0.1027320E+00  0.1479408E+00 -0.1927737E+01  0.5169194E-01  0.1386161E+00
  0.5185360E+01  0.9701130E+01 -0.1027320E+00  0.1660333E+00 -0.1895952E+01  0.5304031E-01  0.1573333E+00
  0.4209520E+01  0.1016270E+02 -0.1027320E+00  0.1833847E+00 -0.1874713E+01  0.5487959E-01  0.1749805E+00
  0.3193130E+01  0.1052630E+02 -0.1027320E+00  0.1998516E+00 -0.1860541E+01  0.5709919E-01  0.1915212E+00
  0.2145990E+01  0.1078860E+02 -0.1027320E+00  0.2151288E+00 -0.1851443E+01  0.5958574E-01  0.2067122E+00
  0.1078190E+01  0.1094700E+02 -0.1027320E+00  0.2293828E+00 -0.1845369E+01  0.6219396E-01  0.2207904E+00
 -0.4808250E-06  0.1100000E+02 -0.1027320E+00  0.2419985E+00 -0.1841897E+01  0.6480523E-01  0.2331599E+00
 -0.1078190E+01  0.1094700E+02 -0.1027320E+00  0.2530254E+00 -0.1840019E+01  0.6730030E-01  0.2439109E+00
 -0.2145990E+01  0.1078860E+02 -0.1027320E+00  0.2621967E+00 -0.1839298E+01  0.6955728E-01  0.2528020E+00
 -0.3193130E+01  0.1052630E+02 -0.1027320E+00  0.2699409E+00 -0.1838928E+01  0.7151545E-01  0.2602953E+00
 -0.4209520E+01  0.1016270E+02 -0.1027320E+00  0.2756014E+00 -0.1838998E+01  0.7303386E-01  0.2657484E+00
 -0.5185370E+01  0.9701130E+01 -0.1027320E+00  0.2793382E+00 -0.1839126E+01  0.7405839E-01  0.2693422E+00
 -0.6111270E+01  0.9146160E+01 -0.1027320E+00  0.2809161E+00 -0.1839320E+01  0.7452939E-01  0.2708490E+00
 -0.6978330E+01  0.8503120E+01 -0.1027320E+00  0.2809240E+00 -0.1839211E+01  0.7450183E-01  0.2708648E+00
 -0.7778170E+01  0.7778170E+01 -0.1027320E+00  0.2787538E+00 -0.1839114E+01  0.7390041E-01  0.2687795E+00
 -0.8503120E+01  0.6978330E+01 -0.1027320E+00  0.2746263E+00 -0.1838960E+01  0.7276542E-01  0.2648108E+00
 -0.9146170E+01  0.6111270E+01 -0.1027320E+00  0.2683717E+00 -0.1839061E+01  0.7113426E-01  0.2587726E+00
 -0.9701130E+01  0.5185360E+01 -0.1027320E+00  0.2606423E+00 -0.1839279E+01  0.6914019E-01  0.2513047E+00
 -0.1016270E+02  0.4209520E+01 -0.1027320E+00  0.2509686E+00 -0.1840300E+01  0.6682120E-01  0.2419095E+00
 -0.1052630E+02  0.3193130E+01 -0.1027320E+00  0.2396142E+00 -0.1842439E+01  0.6429183E-01  0.2308279E+00
 -0.1078860E+02  0.2145990E+01 -0.1027320E+00  0.2265014E+00 -0.1846517E+01  0.6166286E-01  0.2179462E+00
 -0.1094700E+02  0.1078190E+01 -0.1027320E+00  0.2122607E+00 -0.1852785E+01  0.5906496E-01  0.2038772E+00
 -0.1100000E+02 -0.9616510E-06 -0.1027320E+00  0.1966633E+00 -0.1862897E+01  0.5663212E-01  0.1883329E+00
 -0.1094700E+02 -0.1078190E+01 -0.1027320E+00  0.1800011E+00 -0.1878317E+01  0.5448564E-01  0.1715567E+00
 -0.1078860E+02 -0.2146000E+01 -0.1027320E+00  0.1623650E+00 -0.1901651E+01  0.5274457E-01  0.1535591E+00
 -0.1052630E+02 -0.3193130E+01 -0.1027320E+00  0.1443247E+00 -0.1935325E+01  0.5145307E-01  0.1348414E+00
 -0.1016270E+02 -0.4209520E+01 -0.1027320E+00  0.1260625E+00 -0.1985230E+01  0.5076182E-01  0.1153906E+00
 -0.9701130E+01 -0.5185360E+01 -0.1027320E+00  0.1080735E+00 -0.2059357E+01  0.5072490E-01  0.9542987E-01
 -0.9146160E+01 -0.6111270E+01 -0.1027320E+00  0.9099438E-01 -0.2170961E+01  0.5139168E-01  0.7509242E-01
 -0.8503110E+01 -0.6978330E+01 -0.1027320E+00  0.7593659E-01 -0.2337555E+01  0.5268516E-01  0.5468675E-01
 -0.7778170E+01 -0.7778180E+01 -0.1027320E+00  0.6463686E-01 -0.2579093E+01  0.5467793E-01  0.3447099E-01
 -0.6978330E+01 -0.8503110E+01 -0.1027320E+00  0.5914958E-01 -0.2892195E+01  0.5731957E-01  0.1459930E-01
 -0.6111270E+01 -0.9146170E+01 -0.1027320E+00  0.6073552E-01  0.3063895E+01  0.6055228E-01 -0.4714264E-02
 -0.5185360E+01 -0.9701130E+01 -0.1027320E+00  0.6835777E-01  0.2791779E+01  0.6421779E-01 -0.2342774E-01
 -0.4209510E+01 -0.1016270E+02 -0.1027320E+00  0.7966340E-01  0.2599946E+01  0.6826048E-01 -0.4107024E-01
 -0.3193130E+01 -0.1052630E+02 -0.1027320E+00  0.9264217E-01  0.2470542E+01  0.7255446E-01 -0.5760575E-01
 -0.2145990E+01 -0.1078860E+02 -0.1027320E+00  0.1059332E+00  0.2384038E+01  0.7696240E-01 -0.7279164E-01
 -0.1078190E+01 -0.1094700E+02 -0.1027320E+00  0.1190010E+00  0.2323353E+01  0.8133803E-01 -0.8686410E-01
  0.1311740E-06 -0.1100000E+02 -0.1027320E+00  0.1309983E+00  0.2282149E+01  0.8552338E-01 -0.9922852E-01
  0.1078190E+01 -0.1094700E+02 -0.1027320E+00  0.1417234E+00  0.2253326E+01  0.8939315E-01 -0.1099745E+00
  0.2145990E+01 -0.1078860E+02 -0.1027320E+00  0.1507997E+00  0.2233711E+01  0.9280473E-01 -0.1188606E+00
  0.3193140E+01 -0.1052630E+02 -0.1027320E+00  0.1585089E+00  0.2219085E+01  0.9571140E-01 -0.1263504E+00
  0.4209520E+01 -0.1016270E+02 -0.1027320E+00  0.1642032E+00  0.2209838E+01  0.9793515E-01 -0.1318005E+00
  0.5185360E+01 -0.9701130E+01 -0.1027320E+00  0.1679780E+00  0.2204206E+01  0.9942549E-01 -0.1353927E+00
  0.6111270E+01 -0.9146160E+01 -0.1027320E+00  0.1695960E+00  0.2202198E+01  0.1001085E+00 -0.1368981E+00
  0.6978330E+01 -0.8503110E+01 -0.1027320E+00  0.1695843E+00  0.2201939E+01  0.1000662E+00 -0.1369146E+00
  0.7778180E+01 -0.7778170E+01 -0.1027320E+00  0.1673874E+00  0.2205081E+01  0.9919406E-01 -0.1348298E+00
  0.8503120E+01 -0.6978320E+01 -0.1027320E+00  0.1632189E+00  0.2211341E+01  0.9754494E-01 -0.1308641E+00
  0.9146170E+01 -0.6111270E+01 -0.1027320E+00  0.1569581E+00  0.2222093E+01  0.9515091E-01 -0.1248285E+00
  0.9701130E+01 -0.5185360E+01 -0.1027320E+00  0.1492374E+00  0.2236587E+01  0.9218115E-01 -0.1173645E+00
  0.1016270E+02 -0.4209520E+01 -0.1027320E+00  0.1397081E+00  0.2258267E+01  0.8865659E-01 -0.1079739E+00
  0.1052630E+02 -0.3193130E+01 -0.1027320E+00  0.1287056E+00  0.2289195E+01  0.8471148E-01 -0.9689741E-01
  0.1078860E+02 -0.2145990E+01 -0.1027320E+00  0.1163335E+00  0.2334552E+01  0.8046081E-01 -0.8402112E-01
  0.1094700E+02 -0.1078180E+01 -0.1027320E+00  0.1033512E+00  0.2398058E+01  0.7607476E-01 -0.6995779E-01
  0.1100000E+02  0.0000000E+00 -0.2310450E+00  0.8970694E-01  0.2491990E+01  0.7143581E-01 -0.5426104E-01
  0.1094700E+02  0.1078190E+01 -0.2310450E+00  0.7697968E-01  0.2631997E+01  0.6719879E-01 -0.3755255E-01
  0.1078860E+02  0.2145990E+01 -0.2310450E+00  0.6621310E-01  0.2840338E+01  0.6323119E-01 -0.1964665E-01
  0.1052630E+02  0.3193130E+01 -0.2310450E+00  0.5963650E-01  0.3125368E+01  0.5962865E-01 -0.9675508E-03
  0.1016270E+02  0.4209520E+01 -0.2310450E+00  0.5946612E-01 -0.2826541E+01  0.5653923E-01  0.1842648E-01
  0.9701130E+01  0.5185360E+01 -0.2310450E+00  0.6624656E-01 -0.2524772E+01  0.5403877E-01  0.3831995E-01
  0.9146170E+01  0.6111270E+01 -0.2310450E+00  0.7846560E-01 -0.2298577E+01  0.5219645E-01  0.5858652E-01
  0.8503110E+01  0.6978330E+01 -0.2310450E+00  0.9396541E-01 -0.2144379E+01  0.5098988E-01  0.7892738E-01
  0.7778170E+01  0.7778170E+01 -0.2310450E+00  0.1112037E+00 -0.2042094E+01  0.5049122E-01  0.9908023E-01
  0.6978330E+01  0.8503110E+01 -0.2310450E+00  0.1292442E+00 -0.1973665E+01  0.5067137E-01  0.1188969E+00
  0.6111270E+01  0.9146170E+01 -0.2310450E+00  0.1474575E+00 -0.1927556E+01  0.5149801E-01  0.1381726E+00
  0.5185360E+01  0.9701130E+01 -0.2310450E+00  0.1654720E+00 -0.1895886E+01  0.5285065E-01  0.1568049E+00
  0.4209520E+01  0.1016270E+02 -0.2310450E+00  0.1827621E+00 -0.1874680E+01  0.5468760E-01  0.1743882E+00
  0.3193130E+01  0.1052630E+02 -0.2310450E+00  0.1991889E+00 -0.1860490E+01  0.5690008E-01  0.1908890E+00
  0.2145990E+01  0.1078860E+02 -0.2310450E+00  0.2144574E+00 -0.1851334E+01  0.5937736E-01  0.2060736E+00
  0.1078190E+01  0.1094700E+02 -0.2310450E+00  0.2286223E+00 -0.1845333E+01  0.6197971E-01  0.2200606E+00
 -0.4808250E-06  0.1100000E+02 -0.2310450E+00  0.2411851E+00 -0.1841881E+01  0.6458366E-01  0.2323773E+00
 -0.1078190E+01  0.1094700E+02 -0.2310450E+00  0.2521935E+00 -0.1839995E+01  0.6707322E-01  0.2431106E+00
 -0.2145990E+01  0.1078860E+02 -0.2310450E+00  0.2613909E+00 -0.1839237E+01  0.6932823E-01  0.2520293E+00
 -0.3193130E+01  0.1052630E+02 -0.2310450E+00  0.2690531E+00 -0.1838910E+01  0.7127561E-01  0.2594405E+00
 -0.4209520E+01  0.1016270E+02 -0.2310450E+00  0.2746780E+00 -0.1838992E+01  0.7278753E-01  0.2648584E+00
 -0.5185370E+01  0.9701130E+01 -0.2310450E+00  0.2784218E+00 -0.1839113E+01  0.7381206E-01  0.2684594E+00
 -0.6111270E+01  0.9146160E+01 -0.2310450E+00  0.2800573E+00 -0.1839277E+01  0.7428987E-01  0.2700243E+00
 -0.6978330E+01  0.8503120E+01 -0.2310450E+00  0.2800015E+00 -0.1839200E+01  0.7425421E-01  0.2699762E+00
 -0.7778170E+01  0.7778170E+01 -0.2310450E+00  0.2778197E+00 -0.1839109E+01  0.7365138E-01  0.2678792E+00
 -0.8503120E+01  0.6978330E+01 -0.2310450E+00  0.2737238E+00 -0.1838945E+01  0.7252225E-01  0.2639418E+00
 -0.9146170E+01  0.6111270E+01 -0.2310450E+00  0.2675487E+00 -0.1839006E+01  0.7090181E-01  0.2579830E+00
 -0.9701130E+01  0.5185360E+01 -0.2310450E+00  0.2597862E+00 -0.1839258E+01  0.6890798E-01  0.2504806E+00
 -0.1016270E+02  0.4209520E+01 -0.2310450E+00  0.2501254E+00 -0.1840287E+01  0.6659356E-01  0.2410975E+00
 -0.1052630E+02  0.3193130E+01 -0.2310450E+00  0.2388214E+00 -0.1842407E+01  0.6407182E-01  0.2300662E+00
 -0.1078860E+02  0.2145990E+01 -0.2310450E+00  0.2257972E+00 -0.1846421E+01  0.6145027E-01  0.2172746E+00
 -0.1094700E+02  0.1078190E+01 -0.2310450E+00  0.2115584E+00 -0.1852741E+01  0.5886053E-01  0.2032053E+00
 -0.1100000E+02 -0.9616510E-06 -0.2310450E+00  0.1959974E+00 -0.1862869E+01  0.5643497E-01  0.1876968E+00
 -0.1094700E+02 -0.1078190E+01 -0.2310450E+00  0.1793961E+00 -0.1878257E+01  0.5429227E-01  0.1709833E+00
 -0.1078860E+02 -0.2146000E+01 -0.2310450E+00  0.1618414E+00 -0.1901485E+01  0.5254905E-01  0.1530727E+00
 -0.1052630E+02 -0.3193130E+01 -0.2310450E+00  0.1438369E+00 -0.1935244E+01  0.5126826E-01  0.1343898E+00
 -0.1016270E+02 -0.4209520E+01 -0.2310450E+00  0.1256261E+00 -0.1985189E+01  0.5058136E-01  0.1149933E+00
 -0.9701130E+01 -0.5185360E+01 -0.2310450E+00  0.1076933E+00 -0.2059294E+01  0.5054044E-01  0.9509740E-01
 -0.9146160E+01 -0.6111270E+01 -0.2310450E+00  0.9066670E-01 -0.2170802E+01  0.5119472E-01  0.7483016E-01
 -0.8503110E+01 -0.6978330E+01 -0.2310450E+00  0.7566158E-01 -0.2337543E+01  0.5249367E-01  0.5448934E-01
 -0.7778170E+01 -0.7778180E+01 -0.2310450E+00  0.6440140E-01 -0.2579232E+01  0.5448349E-01  0.3433786E-01
 -0.6978330E+01 -0.8503110E+01 -0.2310450E+00  0.5893153E-01 -0.2892587E+01  0.5711396E-01  0.1452309E-01
 -0.6111270E+01 -0.9146170E+01 -0.2310450E+00  0.6051575E-01  0.3063033E+01  0.6032911E-01 -0.4749195E-02
 -0.5185360E+01 -0.9701130E+01 -0.2310450E+00  0.6812658E-01  0.2791322E+01  0.6398993E-01 -0.2337778E-01
 -0.4209510E+01 -0.1016270E+02 -0.2310450E+00  0.7940045E-01  0.2599630E+01  0.6802219E-01 -0.4095624E-01
 -0.3193130E+01 -0.1052630E+02 -0.2310450E+00  0.9234935E-01  0.2470149E+01  0.7230258E-01 -0.5745207E-01
 -0.2145990E+01 -0.1078860E+02 -0.2310450E+00  0.1056300E+00  0.2383412E+01  0.7669669E-01 -0.7263134E-01
 -0.1078190E+01 -0.1094700E+02 -0.2310450E+00  0.1186264E+00  0.2323077E+01  0.8105807E-01 -0.8661296E-01
  0.1311740E-06 -0.1100000E+02 -0.2310450E+00  0.1305762E+00  0.2281971E+01  0.8523019E-01 -0.9892400E-01
  0.1078190E+01 -0.1094700E+02 -0.2310450E+00  0.1412828E+00  0.2253101E+01  0.8909060E-01 -0.1096526E+00
  0.2145990E+01 -0.1078860E+02 -0.2310450E+00  0.1503801E+00  0.2233310E+01  0.9249891E-01 -0.1185670E+00
  0.3193140E+01 -0.1052630E+02 -0.2310450E+00  0.1580141E+00  0.2218896E+01  0.9538876E-01 -0.1259740E+00
  0.4209520E+01 -0.1016270E+02 -0.2310450E+00  0.1636744E+00  0.2209708E+01  0.9760270E-01 -0.1313888E+00
  0.5185360E+01 -0.9701130E+01 -0.2310450E+00  0.1674550E+00  0.2204032E+01  0.9909253E-01 -0.1349884E+00
  0.6111270E+01 -0.9146160E+01 -0.2310450E+00  0.1691254E+00  0.2201859E+01  0.9978449E-01 -0.1365520E+00
  0.6978330E+01 -0.8503110E+01 -0.2310450E+00  0.1690561E+00  0.2201768E+01  0.9973114E-01 -0.1365052E+00
  0.7778180E+01 -0.7778170E+01 -0.2310450E+00  0.1668483E+00  0.2204955E+01  0.9885758E-01 -0.1344081E+00
  0.8503120E+01 -0.6978320E+01 -0.2310450E+00  0.1627096E+00  0.2211161E+01  0.9721696E-01 -0.1304733E+00
  0.9146170E+01 -0.6111270E+01 -0.2310450E+00  0.1565219E+00  0.2221714E+01  0.9483925E-01 -0.1245176E+00
  0.9701130E+01 -0.5185360E+01 -0.2310450E+00  0.1487735E+00  0.2236378E+01  0.9187014E-01 -0.1170190E+00
  0.1016270E+02 -0.4209520E+01 -0.2310450E+00  0.1392582E+00  0.2258104E+01  0.8835346E-01 -0.1076406E+00
  0.1052630E+02 -0.3193130E+01 -0.2310450E+00  0.1283017E+00  0.2288946E+01  0.8442155E-01 -0.9661429E-01
  0.1078860E+02 -0.2145990E+01 -0.2310450E+00  0.1160043E+00  0.2333992E+01  0.8018613E-01 -0.8382828E-01
  0.1094700E+02 -0.1078180E+01 -0.2310450E+00  0.1030272E+00  0.2397713E+01  0.7581225E-01 -0.6976462E-01
  0.1100000E+02  0.0000000E+00 -0.4105000E+00  0.8929547E-01  0.2491514E+01  0.7108245E-01 -0.5404597E-01
  0.1094700E+02  0.1078190E+01 -0.4105000E+00  0.7662310E-01  0.2631350E+01  0.6686332E-01 -0.3742185E-01
  0.1078860E+02  0.2145990E+01 -0.4105000E+00  0.6589936E-01  0.2839195E+01  0.6290919E-01 -0.1962545E-01
  0.1052630E+02  0.3193130E+01 -0.4105000E+00  0.5933785E-01  0.3124667E+01  0.5932935E-01 -0.1004258E-02
  0.1016270E+02  0.4209520E+01 -0.4105000E+00  0.5916217E-01 -0.2826902E+01  0.5625685E-01  0.1831199E-01
  0.9701130E+01  0.5185360E+01 -0.4105000E+00  0.6590458E-01 -0.2524896E+01  0.5376451E-01  0.3811551E-01
  0.9146170E+01  0.6111270E+01 -0.4105000E+00  0.7805876E-01 -0.2298502E+01  0.5192145E-01  0.5828665E-01
  0.8503110E+01  0.6978330E+01 -0.4105000E+00  0.9349670E-01 -0.2144311E+01  0.5073020E-01  0.7853713E-01
  0.7778170E+01  0.7778170E+01 -0.4105000E+00  0.1106611E+00 -0.2042022E+01  0.5023784E-01  0.9860043E-01
  0.6978330E+01  0.8503110E+01 -0.4105000E+00  0.1286277E+00 -0.1973534E+01  0.5041421E-01  0.1183364E+00
  0.6111270E+01  0.9146170E+01 -0.4105000E+00  0.1467768E+00 -0.1927330E+01  0.5122922E-01  0.1375463E+00
  0.5185360E+01  0.9701130E+01 -0.4105000E+00  0.1646909E+00 -0.1895771E+01  0.5258331E-01  0.1560708E+00
  0.4209520E+01  0.1016270E+02 -0.4105000E+00  0.1818969E+00 -0.1874599E+01  0.5441462E-01  0.1735670E+00
  0.3193130E+01  0.1052630E+02 -0.4105000E+00  0.1982645E+00 -0.1860385E+01  0.5661604E-01  0.1900090E+00
  0.2145990E+01  0.1078860E+02 -0.4105000E+00  0.2135053E+00 -0.1851171E+01  0.5908016E-01  0.2051683E+00
  0.1078190E+01  0.1094700E+02 -0.4105000E+00  0.2275633E+00 -0.1845237E+01  0.6167170E-01  0.2190471E+00
 -0.4808250E-06  0.1100000E+02 -0.4105000E+00  0.2400549E+00 -0.1841806E+01  0.6426382E-01  0.2312932E+00
 -0.1078190E+01  0.1094700E+02 -0.4105000E+00  0.2510335E+00 -0.1839909E+01  0.6674381E-01  0.2419981E+00
 -0.2145990E+01  0.1078860E+02 -0.4105000E+00  0.2602461E+00 -0.1839113E+01  0.6899353E-01  0.2509341E+00
 -0.3193130E+01  0.1052630E+02 -0.4105000E+00  0.2678155E+00 -0.1838827E+01  0.7092635E-01  0.2582529E+00
 -0.4209520E+01  0.1016270E+02 -0.4105000E+00  0.2733954E+00 -0.1838920E+01  0.7242870E-01  0.2636268E+00
 -0.5185370E+01  0.9701130E+01 -0.4105000E+00  0.2771442E+00 -0.1839034E+01  0.7345212E-01  0.2672334E+00
 -0.6111270E+01  0.9146160E+01 -0.4105000E+00  0.2788352E+00 -0.1839167E+01  0.7393622E-01  0.2688540E+00
 -0.6978330E+01  0.8503120E+01 -0.4105000E+00  0.2787171E+00 -0.1839119E+01  0.7389204E-01  0.2687437E+00
 -0.7778170E+01  0.7778170E+01 -0.4105000E+00  0.2765227E+00 -0.1839038E+01  0.7328860E-01  0.2666338E+00