 VARIABLES="X" "Y" "Z" "abs(eta) (m)" "angle(phi) (rad)" "PRE1" "PRE2"
ZONE N=   3200 ,E =    3136 ,F=FEPOINT,ET=QUADRILATERAL
  0.1010000E+02  0.0000000E+00  0.0000000E+00  0.1694412E+00  0.2186967E+01  0.9792247E-01 -0.1382806E+00
  0.1005140E+02  0.9899730E+00  0.0000000E+00  0.1785640E+00  0.2175319E+01  0.1014904E+00 -0.1469177E+00
  0.9905930E+01  0.1970410E+01  0.0000000E+00  0.1860777E+00  0.2166787E+01  0.1044509E+00 -0.1539965E+00
  0.9665100E+01  0.2931880E+01  0.0000000E+00  0.1911832E+00  0.2161870E+01  0.1065373E+00 -0.1587477E+00
  0.9331180E+01  0.3865100E+01  0.0000000E+00  0.1944125E+00  0.2158445E+01  0.1077834E+00 -0.1617991E+00
  0.8907400E+01  0.4761110E+01  0.0000000E+00  0.1948143E+00  0.2158507E+01  0.1080162E+00 -0.1621269E+00
  0.8397840E+01  0.5611260E+01  0.0000000E+00  0.1933292E+00  0.2159699E+01  0.1073845E+00 -0.1607629E+00
  0.7807410E+01  0.6407370E+01  0.0000000E+00  0.1893253E+00  0.2163591E+01  0.1057725E+00 -0.1570231E+00
  0.7141780E+01  0.7141780E+01  0.0000000E+00  0.1835476E+00  0.2169222E+01  0.1034001E+00 -0.1516514E+00
  0.6407370E+01  0.7807410E+01  0.0000000E+00  0.1751247E+00  0.2179758E+01  0.1001741E+00 -0.1436447E+00
  0.5611260E+01  0.8397840E+01  0.0000000E+00  0.1649838E+00  0.2193906E+01  0.9627850E-01 -0.1339779E+00
  0.4761110E+01  0.8907410E+01  0.0000000E+00  0.1527952E+00  0.2215342E+01  0.9180475E-01 -0.1221403E+00
  0.3865100E+01  0.9331180E+01  0.0000000E+00  0.1394215E+00  0.2245071E+01  0.8704511E-01 -0.1089105E+00
  0.2931870E+01  0.9665100E+01  0.0000000E+00  0.1243676E+00  0.2291047E+01  0.8202958E-01 -0.9347972E-01
  0.1970410E+01  0.9905930E+01  0.0000000E+00  0.1085447E+00  0.2357921E+01  0.7688509E-01 -0.7662006E-01
  0.9899730E+00  0.1005140E+02  0.0000000E+00  0.9242675E-01  0.2461463E+01  0.7186099E-01 -0.5812659E-01
 -0.4414850E-06  0.1010000E+02  0.0000000E+00  0.7752878E-01  0.2618526E+01  0.6716251E-01 -0.3872867E-01
 -0.9899740E+00  0.1005140E+02  0.0000000E+00  0.6542514E-01  0.2863704E+01  0.6291522E-01 -0.1794782E-01
 -0.1970410E+01  0.9905930E+01  0.0000000E+00  0.5925048E-01 -0.3078516E+01  0.5913265E-01  0.3734825E-02
 -0.2931880E+01  0.9665100E+01  0.0000000E+00  0.6187911E-01 -0.2704836E+01  0.5607041E-01  0.2617506E-01
 -0.3865100E+01  0.9331180E+01  0.0000000E+00  0.7258296E-01 -0.2404416E+01  0.5373820E-01  0.4879029E-01
 -0.4761110E+01  0.8907400E+01  0.0000000E+00  0.8869158E-01 -0.2201067E+01  0.5227157E-01  0.7165109E-01
 -0.5611260E+01  0.8397840E+01  0.0000000E+00  0.1077990E+00 -0.2069649E+01  0.5157302E-01  0.9466173E-01
 -0.6407370E+01  0.7807410E+01  0.0000000E+00  0.1282465E+00 -0.1986197E+01  0.5175470E-01  0.1173397E+00
 -0.7141780E+01  0.7141780E+01  0.0000000E+00  0.1490054E+00 -0.1931789E+01  0.5262921E-01  0.1394015E+00
 -0.7807410E+01  0.6407370E+01  0.0000000E+00  0.1694330E+00 -0.1896788E+01  0.5426057E-01  0.1605096E+00
 -0.8397840E+01  0.5611260E+01  0.0000000E+00  0.1895949E+00 -0.1873420E+01  0.5650422E-01  0.1809793E+00
 -0.8907410E+01  0.4761110E+01  0.0000000E+00  0.2087237E+00 -0.1858722E+01  0.5926991E-01  0.2001316E+00
 -0.9331180E+01  0.3865100E+01  0.0000000E+00  0.2267532E+00 -0.1849100E+01  0.6229466E-01  0.2180284E+00
 -0.9665100E+01  0.2931880E+01  0.0000000E+00  0.2430101E+00 -0.1843859E+01  0.6553554E-01  0.2340064E+00
 -0.9905930E+01  0.1970410E+01  0.0000000E+00  0.2581196E+00 -0.1840981E+01  0.6889443E-01  0.2487554E+00
 -0.1005140E+02  0.9899730E+00  0.0000000E+00  0.2712696E+00 -0.1839979E+01  0.7214252E-01  0.2615008E+00
 -0.1010000E+02 -0.8829700E-06  0.0000000E+00  0.2828054E+00 -0.1839589E+01  0.7510392E-01  0.2726505E+00
 -0.1005140E+02 -0.9899740E+00  0.0000000E+00  0.2918143E+00 -0.1840162E+01  0.7765765E-01  0.2812914E+00
 -0.9905930E+01 -0.1970410E+01  0.0000000E+00  0.2992144E+00 -0.1840800E+01  0.7981103E-01  0.2883738E+00
 -0.9665100E+01 -0.2931880E+01  0.0000000E+00  0.3042036E+00 -0.1841477E+01  0.8134013E-01  0.2931273E+00
 -0.9331180E+01 -0.3865100E+01  0.0000000E+00  0.3073885E+00 -0.1841682E+01  0.8225241E-01  0.2961794E+00
 -0.8907400E+01 -0.4761110E+01  0.0000000E+00  0.3077513E+00 -0.1841939E+01  0.8242584E-01  0.2965077E+00
 -0.8397840E+01 -0.5611260E+01  0.0000000E+00  0.3063121E+00 -0.1841669E+01  0.8196072E-01  0.2951432E+00
 -0.7807400E+01 -0.6407370E+01  0.0000000E+00  0.3023885E+00 -0.1841197E+01  0.8077333E-01  0.2914009E+00
 -0.7141780E+01 -0.7141780E+01  0.0000000E+00  0.2967471E+00 -0.1840417E+01  0.7904330E-01  0.2860262E+00
 -0.6407370E+01 -0.7807410E+01  0.0000000E+00  0.2884089E+00 -0.1840057E+01  0.7672234E-01  0.2780169E+00
 -0.5611260E+01 -0.8397850E+01  0.0000000E+00  0.2783459E+00 -0.1839670E+01  0.7394133E-01  0.2683451E+00
 -0.4761110E+01 -0.8907410E+01  0.0000000E+00  0.2660970E+00 -0.1840145E+01  0.7080926E-01  0.2565028E+00
 -0.3865100E+01 -0.9331190E+01  0.0000000E+00  0.2524771E+00 -0.1841730E+01  0.6757077E-01  0.2432671E+00
 -0.2931870E+01 -0.9665100E+01  0.0000000E+00  0.2367278E+00 -0.1845812E+01  0.6428619E-01  0.2278318E+00
 -0.1970410E+01 -0.9905930E+01  0.0000000E+00  0.2196187E+00 -0.1852419E+01  0.6103531E-01  0.2109670E+00
 -0.9899710E+00 -0.1005140E+02  0.0000000E+00  0.2010363E+00 -0.1863802E+01  0.5806551E-01  0.1924681E+00
  0.1204410E-06 -0.1010000E+02  0.0000000E+00  0.1817573E+00 -0.1881310E+01  0.5553555E-01  0.1730651E+00
  0.9899760E+00 -0.1005140E+02  0.0000000E+00  0.1614324E+00 -0.1909129E+01  0.5358183E-01  0.1522806E+00
  0.1970410E+01 -0.9905930E+01  0.0000000E+00  0.1406347E+00 -0.1950940E+01  0.5218299E-01  0.1305950E+00
  0.2931880E+01 -0.9665100E+01  0.0000000E+00  0.1198205E+00 -0.2015775E+01  0.5157541E-01  0.1081524E+00
  0.3865100E+01 -0.9331180E+01  0.0000000E+00  0.9996098E-01 -0.2114710E+01  0.5172869E-01  0.8553560E-01
  0.4761110E+01 -0.8907410E+01  0.0000000E+00  0.8193126E-01 -0.2270599E+01  0.5276918E-01  0.6267492E-01
  0.5611260E+01 -0.8397840E+01  0.0000000E+00  0.6747236E-01 -0.2513169E+01  0.5458210E-01  0.3966502E-01
  0.6407370E+01 -0.7807410E+01  0.0000000E+00  0.5971219E-01 -0.2853098E+01  0.5724449E-01  0.1698866E-01
  0.7141780E+01 -0.7141780E+01  0.0000000E+00  0.6075512E-01  0.3058037E+01  0.6054316E-01 -0.5070506E-02
  0.7807410E+01 -0.6407370E+01  0.0000000E+00  0.6962117E-01  0.2756162E+01  0.6451353E-01 -0.2617465E-01
  0.8397840E+01 -0.5611260E+01  0.0000000E+00  0.8329526E-01  0.2547288E+01  0.6901328E-01 -0.4663976E-01
  0.8907410E+01 -0.4761110E+01  0.0000000E+00  0.9894697E-01  0.2414266E+01  0.7390887E-01 -0.6578740E-01
  0.9331180E+01 -0.3865100E+01  0.0000000E+00  0.1150293E+00  0.2326976E+01  0.7892706E-01 -0.8367954E-01
  0.9665100E+01 -0.2931870E+01  0.0000000E+00  0.1303210E+00  0.2271071E+01  0.8398246E-01 -0.9965189E-01
  0.9905930E+01 -0.1970410E+01  0.0000000E+00  0.1449384E+00  0.2231978E+01  0.8899944E-01 -0.1143951E+00
  0.1005140E+02 -0.9899690E+00  0.0000000E+00  0.1579350E+00  0.2205940E+01  0.9370176E-01 -0.1271355E+00
  0.1010000E+02  0.0000000E+00 -0.2568960E-01  0.1693620E+00  0.2186840E+01  0.9785922E-01 -0.1382283E+00
  0.1005140E+02  0.9899730E+00 -0.2568960E-01  0.1784656E+00  0.2175240E+01  0.1014227E+00 -0.1468448E+00
  0.9905930E+01  0.1970410E+01 -0.2568960E-01  0.1858476E+00  0.2167025E+01  0.1043582E+00 -0.1537814E+00
  0.9665100E+01  0.2931880E+01 -0.2568960E-01  0.1910786E+00  0.2161798E+01  0.1064676E+00 -0.1586684E+00
  0.9331180E+01  0.3865100E+01 -0.2568960E-01  0.1943219E+00  0.2158339E+01  0.1077160E+00 -0.1617352E+00
  0.8907400E+01  0.4761110E+01 -0.2568960E-01  0.1947072E+00  0.2158436E+01  0.1079452E+00 -0.1620454E+00
  0.8397840E+01  0.5611260E+01 -0.2568960E-01  0.1930896E+00  0.2159923E+01  0.1072873E+00 -0.1605398E+00
  0.7807410E+01  0.6407370E+01 -0.2568960E-01  0.1892212E+00  0.2163519E+01  0.1057030E+00 -0.1569444E+00
  0.7141780E+01  0.7141780E+01 -0.2568960E-01  0.1834622E+00  0.2169107E+01  0.1033346E+00 -0.1515926E+00
  0.6407370E+01  0.7807410E+01 -0.2568960E-01  0.1750292E+00  0.2179677E+01  0.1001079E+00 -0.1435745E+00
  0.5611260E+01  0.8397840E+01 -0.2568960E-01  0.1647813E+00  0.2194191E+01  0.9619849E-01 -0.1337861E+00
  0.4761110E+01  0.8907410E+01 -0.2568960E-01  0.1527102E+00  0.2215250E+01  0.9174248E-01 -0.1220808E+00
  0.3865100E+01  0.9331180E+01 -0.2568960E-01  0.1393557E+00  0.2244908E+01  0.8698635E-01 -0.1088733E+00
  0.2931870E+01  0.9665100E+01 -0.2568960E-01  0.1242995E+00  0.2290925E+01  0.8197317E-01 -0.9343850E-01
  0.1970410E+01  0.9905930E+01 -0.2568960E-01  0.1084209E+00  0.2358401E+01  0.7683416E-01 -0.7649579E-01
  0.9899730E+00  0.1005140E+02 -0.2568960E-01  0.9237216E-01  0.2461309E+01  0.7180962E-01 -0.5810331E-01
 -0.4414850E-06  0.1010000E+02 -0.2568960E-01  0.7748400E-01  0.2618235E+01  0.6711244E-01 -0.3872583E-01
 -0.9899740E+00  0.1005140E+02 -0.2568960E-01  0.6538133E-01  0.2863489E+01  0.6286924E-01 -0.1794930E-01
 -0.1970410E+01  0.9905930E+01 -0.2568960E-01  0.5922719E-01 -0.3078014E+01  0.5910753E-01  0.3763034E-02
 -0.2931880E+01  0.9665100E+01 -0.2568960E-01  0.6183050E-01 -0.2704897E+01  0.5602797E-01  0.2615105E-01
 -0.3865100E+01  0.9331180E+01 -0.2568960E-01  0.7252396E-01 -0.2404412E+01  0.5369433E-01  0.4875084E-01
 -0.4761110E+01  0.8907400E+01 -0.2568960E-01  0.8862611E-01 -0.2201047E+01  0.5223158E-01  0.7159922E-01
 -0.5611260E+01  0.8397840E+01 -0.2568960E-01  0.1077199E+00 -0.2069877E+01  0.5155676E-01  0.9458052E-01
 -0.6407370E+01  0.7807410E+01 -0.2568960E-01  0.1281619E+00 -0.1986152E+01  0.5171532E-01  0.1172647E+00
 -0.7141780E+01  0.7141780E+01 -0.2568960E-01  0.1489125E+00 -0.1931721E+01  0.5258685E-01  0.1393182E+00
 -0.7807410E+01  0.6407370E+01 -0.2568960E-01  0.1693238E+00 -0.1896752E+01  0.5421995E-01  0.1604081E+00
 -0.8397840E+01  0.5611260E+01 -0.2568960E-01  0.1894100E+00 -0.1873572E+01  0.5647651E-01  0.1807943E+00
 -0.8907410E+01  0.4761110E+01 -0.2568960E-01  0.2085948E+00 -0.1858692E+01  0.5922738E-01  0.2000097E+00
 -0.9331180E+01  0.3865100E+01 -0.2568960E-01  0.2266241E+00 -0.1849055E+01  0.6224958E-01  0.2179071E+00
 -0.9665100E+01  0.2931880E+01 -0.2568960E-01  0.2428599E+00 -0.1843835E+01  0.6548934E-01  0.2338634E+00
 -0.9905930E+01  0.1970410E+01 -0.2568960E-01  0.2578504E+00 -0.1841066E+01  0.6884379E-01  0.2484902E+00
 -0.1005140E+02  0.9899730E+00 -0.2568960E-01  0.2711050E+00 -0.1839961E+01  0.7209385E-01  0.2613435E+00
 -0.1010000E+02 -0.8829700E-06 -0.2568960E-01  0.2826491E+00 -0.1839561E+01  0.7505481E-01  0.2725019E+00
 -0.1005140E+02 -0.9899740E+00 -0.2568960E-01  0.2916374E+00 -0.1840145E+01  0.7760566E-01  0.2811223E+00
 -0.9905930E+01 -0.1970410E+01 -0.2568960E-01  0.2988952E+00 -0.1840853E+01  0.7974105E-01  0.2880620E+00
 -0.9665100E+01 -0.2931880E+01 -0.2568960E-01  0.3040202E+00 -0.1841461E+01  0.8128660E-01  0.2929518E+00
 -0.9331180E+01 -0.3865100E+01 -0.2568960E-01  0.3072202E+00 -0.1841659E+01  0.8220078E-01  0.2960190E+00
 -0.8907400E+01 -0.4761110E+01 -0.2568960E-01  0.3075654E+00 -0.1841925E+01  0.8237177E-01  0.2963298E+00
 -0.8397840E+01 -0.5611260E+01 -0.2568960E-01  0.3059843E+00 -0.1841717E+01  0.8188716E-01  0.2948234E+00
 -0.7807400E+01 -0.6407370E+01 -0.2568960E-01  0.3022057E+00 -0.1841181E+01  0.8071988E-01  0.2912259E+00
 -0.7141780E+01 -0.7141780E+01 -0.2568960E-01  0.2965840E+00 -0.1840392E+01  0.7899284E-01  0.2858710E+00
 -0.6407370E+01 -0.7807410E+01 -0.2568960E-01  0.2882345E+00 -0.1840041E+01  0.7667127E-01  0.2778500E+00
 -0.5611260E+01 -0.8397850E+01 -0.2568960E-01  0.2780520E+00 -0.1839739E+01  0.7388176E-01  0.2680567E+00
 -0.4761110E+01 -0.8907410E+01 -0.2568960E-01  0.2659339E+00 -0.1840123E+01  0.7076045E-01  0.2563471E+00
 -0.3865100E+01 -0.9331190E+01 -0.2568960E-01  0.2523358E+00 -0.1841694E+01  0.6752415E-01  0.2431334E+00
 -0.2931870E+01 -0.9665100E+01 -0.2568960E-01  0.2365828E+00 -0.1845788E+01  0.6424140E-01  0.2276938E+00
 -0.1970410E+01 -0.9905930E+01 -0.2568960E-01  0.2193965E+00 -0.1852540E+01  0.6099904E-01  0.2107462E+00
 -0.9899710E+00 -0.1005140E+02 -0.2568960E-01  0.2009095E+00 -0.1863772E+01  0.5802308E-01  0.1923485E+00
  0.1204410E-06 -0.1010000E+02 -0.2568960E-01  0.1816496E+00 -0.1881252E+01  0.5549260E-01  0.1729658E+00
  0.9899760E+00 -0.1005140E+02 -0.2568960E-01  0.1613296E+00 -0.1909090E+01  0.5354181E-01  0.1521858E+00
  0.1970410E+01 -0.9905930E+01 -0.2568960E-01  0.1405121E+00 -0.1951147E+01  0.5216451E-01  0.1304704E+00
  0.2931880E+01 -0.9665100E+01 -0.2568960E-01  0.1197381E+00 -0.2015738E+01  0.5153591E-01  0.1080799E+00
  0.3865100E+01 -0.9331180E+01 -0.2568960E-01  0.9988993E-01 -0.2114640E+01  0.5168594E-01  0.8547843E-01
  0.4761110E+01 -0.8907410E+01 -0.2568960E-01  0.8187132E-01 -0.2270571E+01  0.5272887E-01  0.6263050E-01
  0.5611260E+01 -0.8397840E+01 -0.2568960E-01  0.6744814E-01 -0.2513185E+01  0.5456317E-01  0.3964987E-01
  0.6407370E+01 -0.7807410E+01 -0.2568960E-01  0.5966503E-01 -0.2853235E+01  0.5720160E-01  0.1696741E-01
  0.7141780E+01 -0.7141780E+01 -0.2568960E-01  0.6070919E-01  0.3057754E+01  0.6049595E-01 -0.5083821E-02
  0.7807410E+01 -0.6407370E+01 -0.2568960E-01  0.6957531E-01  0.2755976E+01  0.6446617E-01 -0.2616939E-01
  0.8397840E+01 -0.5611260E+01 -0.2568960E-01  0.8321325E-01  0.2547905E+01  0.6897407E-01 -0.4655128E-01
  0.8907410E+01 -0.4761110E+01 -0.2568960E-01  0.9889105E-01  0.2414109E+01  0.7385682E-01 -0.6576177E-01
  0.9331180E+01 -0.3865100E+01 -0.2568960E-01  0.1149732E+00  0.2326776E+01  0.7887179E-01 -0.8365450E-01
  0.9665100E+01 -0.2931870E+01 -0.2568960E-01  0.1302480E+00  0.2270959E+01  0.8392429E-01 -0.9960546E-01
  0.9905930E+01 -0.1970410E+01 -0.2568960E-01  0.1447627E+00  0.2232318E+01  0.8893040E-01 -0.1142262E+00
  0.1005140E+02 -0.9899690E+00 -0.2568960E-01  0.1578489E+00  0.2205848E+01  0.9363898E-01 -0.1270749E+00
  0.1010000E+02  0.0000000E+00 -0.1027320E+00  0.1690818E+00  0.2186640E+01  0.9766965E-01 -0.1380192E+00
  0.1005140E+02  0.9899730E+00 -0.1027320E+00  0.1781224E+00  0.2175185E+01  0.1012196E+00 -0.1465680E+00
  0.9905930E+01  0.1970410E+01 -0.1027320E+00  0.1854171E+00  0.2167159E+01  0.1041371E+00 -0.1534112E+00
  0.9665100E+01  0.2931880E+01 -0.1027320E+00  0.1907133E+00  0.2161750E+01  0.1062566E+00 -0.1583702E+00
  0.9331180E+01  0.3865100E+01 -0.1027320E+00  0.1940010E+00  0.2158188E+01  0.1075137E+00 -0.1614843E+00
  0.8907400E+01  0.4761110E+01 -0.1027320E+00  0.1943346E+00  0.2158392E+01  0.1077316E+00 -0.1617400E+00
  0.8397840E+01  0.5611260E+01 -0.1027320E+00  0.1926421E+00  0.2160053E+01  0.1070595E+00 -0.1601538E+00
  0.7807410E+01  0.6407370E+01 -0.1027320E+00  0.1888578E+00  0.2163471E+01  0.1054924E+00 -0.1566481E+00
  0.7141780E+01  0.7141780E+01 -0.1027320E+00  0.1831590E+00  0.2168936E+01  0.1031379E+00 -0.1513598E+00
  0.6407370E+01  0.7807410E+01 -0.1027320E+00  0.1746954E+00  0.2179617E+01  0.9990834E-01 -0.1433067E+00
  0.5611260E+01  0.8397840E+01 -0.1027320E+00  0.1644003E+00  0.2194339E+01  0.9599578E-01 -0.1334626E+00
  0.4761110E+01  0.8907410E+01 -0.1027320E+00  0.1524156E+00  0.2215169E+01  0.9155557E-01 -0.1218527E+00
  0.3865100E+01  0.9331180E+01 -0.1027320E+00  0.1391230E+00  0.2244634E+01  0.8681133E-01 -0.1087152E+00
  0.2931870E+01  0.9665100E+01 -0.1027320E+00  0.1240625E+00  0.2290798E+01  0.8180506E-01 -0.9327080E-01
  0.1970410E+01  0.9905930E+01 -0.1027320E+00  0.1081746E+00  0.2358613E+01  0.7667574E-01 -0.7630578E-01
  0.9899730E+00  0.1005140E+02 -0.1027320E+00  0.9218868E-01  0.2461140E+01  0.7165717E-01 -0.5800001E-01
 -0.4414850E-06  0.1010000E+02 -0.1027320E+00  0.7733742E-01  0.2617688E+01  0.6696435E-01 -0.3868918E-01
 -0.9899740E+00  0.1005140E+02 -0.1027320E+00  0.6524645E-01  0.2863196E+01  0.6273428E-01 -0.1793069E-01
 -0.1970410E+01  0.9905930E+01 -0.1027320E+00  0.5910948E-01 -0.3077836E+01  0.5898938E-01  0.3766102E-02
 -0.2931880E+01  0.9665100E+01 -0.1027320E+00  0.6169259E-01 -0.2704943E+01  0.5590421E-01  0.2609013E-01
 -0.3865100E+01  0.9331180E+01 -0.1027320E+00  0.7235295E-01 -0.2404377E+01  0.5356603E-01  0.4863774E-01
 -0.4761110E+01  0.8907400E+01 -0.1027320E+00  0.8843116E-01 -0.2201031E+01  0.5211555E-01  0.7144256E-01
 -0.5611260E+01  0.8397840E+01 -0.1027320E+00  0.1074885E+00 -0.2069979E+01  0.5145562E-01  0.9437216E-01
 -0.6407370E+01  0.7807410E+01 -0.1027320E+00  0.1278973E+00 -0.1986092E+01  0.5160152E-01  0.1170257E+00
 -0.7141780E+01  0.7141780E+01 -0.1027320E+00  0.1486187E+00 -0.1931581E+01  0.5246364E-01  0.1390506E+00
 -0.7807410E+01  0.6407370E+01 -0.1027320E+00  0.1689734E+00 -0.1896716E+01  0.5410201E-01  0.1600781E+00
 -0.8397840E+01  0.5611260E+01 -0.1027320E+00  0.1889858E+00 -0.1873648E+01  0.5636369E-01  0.1803851E+00
 -0.8907410E+01  0.4761110E+01 -0.1027320E+00  0.2081744E+00 -0.1858668E+01  0.5910334E-01  0.1996081E+00
 -0.9331180E+01  0.3865100E+01 -0.1027320E+00  0.2262006E+00 -0.1848986E+01  0.6211809E-01  0.2175041E+00
 -0.9665100E+01  0.2931880E+01 -0.1027320E+00  0.2423684E+00 -0.1843824E+01  0.6535418E-01  0.2333908E+00
 -0.9905930E+01  0.1970410E+01 -0.1027320E+00  0.2572663E+00 -0.1841125E+01  0.6870247E-01  0.2479232E+00
 -0.1005140E+02  0.9899730E+00 -0.1027320E+00  0.2705625E+00 -0.1839962E+01  0.7194991E-01  0.2608204E+00
 -0.1010000E+02 -0.8829700E-06 -0.1027320E+00  0.2821301E+00 -0.1839535E+01  0.7491001E-01  0.2720035E+00
 -0.1005140E+02 -0.9899740E+00 -0.1027320E+00  0.2910515E+00 -0.1840152E+01  0.7745171E-01  0.2805570E+00
 -0.9905930E+01 -0.1970410E+01 -0.1027320E+00  0.2982154E+00 -0.1840905E+01  0.7957471E-01  0.2874027E+00
 -0.9665100E+01 -0.2931880E+01 -0.1027320E+00  0.3034117E+00 -0.1841475E+01  0.8112781E-01  0.2923644E+00
 -0.9331180E+01 -0.3865100E+01 -0.1027320E+00  0.3066595E+00 -0.1841652E+01  0.8204858E-01  0.2954794E+00
 -0.8907400E+01 -0.4761110E+01 -0.1027320E+00  0.3069501E+00 -0.1841938E+01  0.8221092E-01  0.2957359E+00
 -0.8397840E+01 -0.5611260E+01 -0.1027320E+00  0.3052882E+00 -0.1841768E+01  0.8171581E-01  0.2941486E+00
 -0.7807400E+01 -0.6407370E+01 -0.1027320E+00  0.3016000E+00 -0.1841192E+01  0.8056105E-01  0.2906415E+00
 -0.7141780E+01 -0.7141780E+01 -0.1027320E+00  0.2960417E+00 -0.1840377E+01  0.7884391E-01  0.2853495E+00
 -0.6407370E+01 -0.7807410E+01 -0.1027320E+00  0.2876578E+00 -0.1840049E+01  0.7652009E-01  0.2772935E+00
 -0.5611260E+01 -0.8397850E+01 -0.1027320E+00  0.2774211E+00 -0.1839794E+01  0.7372886E-01  0.2674445E+00
 -0.4761110E+01 -0.8907410E+01 -0.1027320E+00  0.2653974E+00 -0.1840121E+01  0.7061706E-01  0.2558300E+00
 -0.3865100E+01 -0.9331190E+01 -0.1027320E+00  0.2518688E+00 -0.1841645E+01  0.6738731E-01  0.2426867E+00
 -0.2931870E+01 -0.9665100E+01 -0.1027320E+00  0.2361078E+00 -0.1845776E+01  0.6410973E-01  0.2272374E+00
 -0.1970410E+01 -0.9905930E+01 -0.1027320E+00  0.2189022E+00 -0.1852608E+01  0.6087587E-01  0.2102672E+00
 -0.9899710E+00 -0.1005140E+02 -0.1027320E+00  0.2004984E+00 -0.1863746E+01  0.5789948E-01  0.1919564E+00
  0.1204410E-06 -0.1010000E+02 -0.1027320E+00  0.1813015E+00 -0.1881142E+01  0.5536730E-01  0.1726404E+00
  0.9899760E+00 -0.1005140E+02 -0.1027320E+00  0.1610013E+00 -0.1909045E+01  0.5342598E-01  0.1518785E+00
  0.1970410E+01 -0.9905930E+01 -0.1027320E+00  0.1402028E+00 -0.1951239E+01  0.5206179E-01  0.1301783E+00
  0.2931880E+01 -0.9665100E+01 -0.1027320E+00  0.1194833E+00 -0.2015695E+01  0.5142162E-01  0.1078521E+00
  0.3865100E+01 -0.9331180E+01 -0.1027320E+00  0.9967521E-01 -0.2114486E+01  0.5156169E-01  0.8530263E-01
  0.4761110E+01 -0.8907410E+01 -0.1027320E+00  0.8169462E-01 -0.2270515E+01  0.5261157E-01  0.6249826E-01
  0.5611260E+01 -0.8397840E+01 -0.1027320E+00  0.6731362E-01 -0.2513209E+01  0.5445527E-01  0.3956952E-01
  0.6407370E+01 -0.7807410E+01 -0.1027320E+00  0.5953103E-01 -0.2853441E+01  0.5707662E-01  0.1691753E-01
  0.7141780E+01 -0.7141780E+01 -0.1027320E+00  0.6057260E-01  0.3057215E+01  0.6035710E-01 -0.5104888E-02
  0.7807410E+01 -0.6407370E+01 -0.1027320E+00  0.6943086E-01  0.2755768E+01  0.6432690E-01 -0.2612843E-01
  0.8397840E+01 -0.5611260E+01 -0.1027320E+00  0.8302961E-01  0.2548159E+01  0.6883367E-01 -0.4643104E-01
  0.8907410E+01 -0.4761110E+01 -0.1027320E+00  0.9870113E-01  0.2413924E+01  0.7370282E-01 -0.6564912E-01
  0.9331180E+01 -0.3865100E+01 -0.1027320E+00  0.1147776E+00  0.2326417E+01  0.7870764E-01 -0.8354042E-01
  0.9665100E+01 -0.2931870E+01 -0.1027320E+00  0.1299953E+00  0.2270854E+01  0.8375099E-01 -0.9942109E-01
  0.9905930E+01 -0.1970410E+01 -0.1027320E+00  0.1444291E+00  0.2232484E+01  0.8874437E-01 -0.1139483E+00
  0.1005140E+02 -0.9899690E+00 -0.1027320E+00  0.1575484E+00  0.2205769E+01  0.9345067E-01 -0.1268404E+00
  0.1010000E+02  0.0000000E+00 -0.2310450E+00  0.1685587E+00  0.2186489E+01  0.9734672E-01 -0.1376069E+00
  0.1005140E+02  0.9899730E+00 -0.2310450E+00  0.1775437E+00  0.2175116E+01  0.1008807E+00 -0.1460987E+00
  0.9905930E+01  0.1970410E+01 -0.2310450E+00  0.1848384E+00  0.2167043E+01  0.1037943E+00 -0.1529443E+00
  0.9665100E+01  0.2931880E+01 -0.2310450E+00  0.1900956E+00  0.2161691E+01  0.1059031E+00 -0.1578635E+00
  0.9331180E+01  0.3865100E+01 -0.2310450E+00  0.1934006E+00  0.2158072E+01  0.1071624E+00 -0.1609969E+00
  0.8907400E+01  0.4761110E+01 -0.2310450E+00  0.1937042E+00  0.2158337E+01  0.1073733E+00 -0.1612212E+00
  0.8397840E+01  0.5611260E+01 -0.2310450E+00  0.1920407E+00  0.2159946E+01  0.1067083E+00 -0.1596652E+00
  0.7807410E+01  0.6407370E+01 -0.2310450E+00  0.1882446E+00  0.2163412E+01  0.1051406E+00 -0.1561456E+00
  0.7141780E+01  0.7141780E+01 -0.2310450E+00  0.1825919E+00  0.2168806E+01  0.1027990E+00 -0.1509045E+00
  0.6407370E+01  0.7807410E+01 -0.2310450E+00  0.1741309E+00  0.2179543E+01  0.9957497E-01 -0.1428509E+00
  0.5611260E+01  0.8397840E+01 -0.2310450E+00  0.1638876E+00  0.2194194E+01  0.9567705E-01 -0.1330603E+00
  0.4761110E+01  0.8907410E+01 -0.2310450E+00  0.1519199E+00  0.2215078E+01  0.9124675E-01 -0.1214647E+00
  0.3865100E+01  0.9331180E+01 -0.2310450E+00  0.1386921E+00  0.2244424E+01  0.8651961E-01 -0.1083967E+00
  0.2931870E+01  0.9665100E+01 -0.2310450E+00  0.1236638E+00  0.2290653E+01  0.8152869E-01 -0.9298284E-01
  0.1970410E+01  0.9905930E+01 -0.2310450E+00  0.1078348E+00  0.2358337E+01  0.7641393E-01 -0.7608718E-01
  0.9899730E+00  0.1005140E+02 -0.2310450E+00  0.9188540E-01  0.2460952E+01  0.7141054E-01 -0.5782267E-01
 -0.4414850E-06  0.1010000E+02 -0.2310450E+00  0.7708719E-01  0.2617244E+01  0.6673055E-01 -0.3859364E-01
 -0.9899740E+00  0.1005140E+02 -0.2310450E+00  0.6502793E-01  0.2862833E+01  0.6251768E-01 -0.1789332E-01
 -0.1970410E+01  0.9905930E+01 -0.2310450E+00  0.5889851E-01 -0.3078250E+01  0.5878039E-01  0.3728271E-02
 -0.2931880E+01  0.9665100E+01 -0.2310450E+00  0.6147253E-01 -0.2705076E+01  0.5570825E-01  0.2598966E-01
 -0.3865100E+01  0.9331180E+01 -0.2310450E+00  0.7208756E-01 -0.2404437E+01  0.5337246E-01  0.4845614E-01
 -0.4761110E+01  0.8907400E+01 -0.2310450E+00  0.8811441E-01 -0.2201084E+01  0.5193263E-01  0.7118393E-01
 -0.5611260E+01  0.8397840E+01 -0.2310450E+00  0.1071127E+00 -0.2069927E+01  0.5127081E-01  0.9404488E-01
 -0.6407370E+01  0.7807410E+01 -0.2310450E+00  0.1274575E+00 -0.1986069E+01  0.5142139E-01  0.1166245E+00
 -0.7141780E+01  0.7141780E+01 -0.2310450E+00  0.1481145E+00 -0.1931513E+01  0.5227630E-01  0.1385825E+00
 -0.7807410E+01  0.6407370E+01 -0.2310450E+00  0.1683908E+00 -0.1896709E+01  0.5391423E-01  0.1595266E+00
 -0.8397840E+01  0.5611260E+01 -0.2310450E+00  0.1883525E+00 -0.1873608E+01  0.5616760E-01  0.1797828E+00
 -0.8907410E+01  0.4761110E+01 -0.2310450E+00  0.2074699E+00 -0.1858666E+01  0.5890277E-01  0.1989328E+00
 -0.9331180E+01  0.3865100E+01 -0.2310450E+00  0.2254526E+00 -0.1848956E+01  0.6190627E-01  0.2167867E+00
 -0.9665100E+01  0.2931880E+01 -0.2310450E+00  0.2415442E+00 -0.1843829E+01  0.6513321E-01  0.2325968E+00
 -0.9905930E+01  0.1970410E+01 -0.2310450E+00  0.2564158E+00 -0.1841117E+01  0.6847342E-01  0.2471041E+00
 -0.1005140E+02  0.9899730E+00 -0.2310450E+00  0.2696504E+00 -0.1839977E+01  0.7171123E-01  0.2599401E+00
 -0.1010000E+02 -0.8829700E-06 -0.2310450E+00  0.2812049E+00 -0.1839535E+01  0.7466417E-01  0.2711115E+00
 -0.1005140E+02 -0.9899740E+00 -0.2310450E+00  0.2900683E+00 -0.1840170E+01  0.7719522E-01  0.2796078E+00
 -0.9905930E+01 -0.1970410E+01 -0.2310450E+00  0.2972343E+00 -0.1840915E+01  0.7931586E-01  0.2864563E+00
 -0.9665100E+01 -0.2931880E+01 -0.2310450E+00  0.3023899E+00 -0.1841498E+01  0.8086124E-01  0.2913780E+00
 -0.9331180E+01 -0.3865100E+01 -0.2310450E+00  0.3056566E+00 -0.1841663E+01  0.8178362E-01  0.2945121E+00
 -0.8907400E+01 -0.4761110E+01 -0.2310450E+00  0.3059156E+00 -0.1841962E+01  0.8194084E-01  0.2947373E+00
 -0.8397840E+01 -0.5611260E+01 -0.2310450E+00  0.3042845E+00 -0.1841781E+01  0.8145109E-01  0.2931805E+00
 -0.7807400E+01 -0.6407370E+01 -0.2310450E+00  0.3005824E+00 -0.1841213E+01  0.8029561E-01  0.2896591E+00
 -0.7141780E+01 -0.7141780E+01 -0.2310450E+00  0.2950725E+00 -0.1840384E+01  0.7858772E-01  0.2844147E+00
 -0.6407370E+01 -0.7807410E+01 -0.2310450E+00  0.2866890E+00 -0.1840068E+01  0.7626758E-01  0.2763582E+00
 -0.5611260E+01 -0.8397850E+01 -0.2310450E+00  0.2765065E+00 -0.1839795E+01  0.7348614E-01  0.2665626E+00
 -0.4761110E+01 -0.8907410E+01 -0.2310450E+00  0.2644981E+00 -0.1840132E+01  0.7038070E-01  0.2549624E+00
 -0.3865100E+01 -0.9331190E+01 -0.2310450E+00  0.2510389E+00 -0.1841630E+01  0.6716163E-01  0.2418881E+00
 -0.2931870E+01 -0.9665100E+01 -0.2310450E+00  0.2353105E+00 -0.1845781E+01  0.6389445E-01  0.2264698E+00
 -0.1970410E+01 -0.9905930E+01 -0.2310450E+00  0.2181741E+00 -0.1852582E+01  0.6066801E-01  0.2095694E+00
 -0.9899710E+00 -0.1005140E+02 -0.2310450E+00  0.1998119E+00 -0.1863742E+01  0.5770037E-01  0.1912994E+00
  0.1204410E-06 -0.1010000E+02 -0.2310450E+00  0.1806949E+00 -0.1881089E+01  0.5517291E-01  0.1720656E+00
  0.9899760E+00 -0.1005140E+02 -0.2310450E+00  0.1604524E+00 -0.1909029E+01  0.5324132E-01  0.1513616E+00
  0.1970410E+01 -0.9905930E+01 -0.2310450E+00  0.1397240E+00 -0.1951181E+01  0.5187634E-01  0.1297368E+00
  0.2931880E+01 -0.9665100E+01 -0.2310450E+00  0.1190636E+00 -0.2015699E+01  0.5124141E-01  0.1074731E+00
  0.3865100E+01 -0.9331180E+01 -0.2310450E+00  0.9932379E-01 -0.2114429E+01  0.5137506E-01  0.8500481E-01
  0.4761110E+01 -0.8907410E+01 -0.2310450E+00  0.8140677E-01 -0.2270526E+01  0.5242683E-01  0.6227753E-01
  0.5611260E+01 -0.8397840E+01 -0.2310450E+00  0.6706634E-01 -0.2513335E+01  0.5426022E-01  0.3941729E-01
  0.6407370E+01 -0.7807410E+01 -0.2310450E+00  0.5931826E-01 -0.2853751E+01  0.5687784E-01  0.1683947E-01
  0.7141780E+01 -0.7141780E+01 -0.2310450E+00  0.6036020E-01  0.3056730E+01  0.6014298E-01 -0.5116183E-02
  0.7807410E+01 -0.6407370E+01 -0.2310450E+00  0.6919682E-01  0.2755519E+01  0.6410357E-01 -0.2605632E-01
  0.8397840E+01 -0.5611260E+01 -0.2310450E+00  0.8276300E-01  0.2547777E+01  0.6859494E-01 -0.4630819E-01
  0.8907410E+01 -0.4761110E+01 -0.2310450E+00  0.9838330E-01  0.2413715E+01  0.7345181E-01 -0.6545308E-01
  0.9331180E+01 -0.3865100E+01 -0.2310450E+00  0.1144203E+00  0.2326138E+01  0.7843933E-01 -0.8330225E-01
  0.9665100E+01 -0.2931870E+01 -0.2310450E+00  0.1295716E+00  0.2270734E+01  0.8346614E-01 -0.9910704E-01
  0.9905930E+01 -0.1970410E+01 -0.2310450E+00  0.1439785E+00  0.2232304E+01  0.8844704E-01 -0.1136087E+00
  0.1005140E+02 -0.9899690E+00 -0.2310450E+00  0.1570404E+00  0.2205676E+01  0.9313764E-01 -0.1264400E+00
  0.1010000E+02  0.0000000E+00 -0.4105000E+00  0.1677816E+00  0.2186279E+01  0.9686913E-01 -0.1369928E+00
  0.1005140E+02  0.9899730E+00 -0.4105000E+00  0.1767728E+00  0.2174776E+01  0.1003933E+00 -0.1454985E+00
  0.9905930E+01  0.1970410E+01 -0.4105000E+00  0.1840067E+00  0.2166798E+01  0.1032900E+00 -0.1522815E+00
  0.9665100E+01  0.2931880E+01 -0.4105000E+00  0.1892747E+00  0.2161377E+01  0.1053964E+00 -0.1572148E+00
  0.9331180E+01  0.3865100E+01 -0.4105000E+00  0.1925088E+00  0.2157888E+01  0.1066388E+00 -0.1602742E+00
  0.8907400E+01  0.4761110E+01 -0.4105000E+00  0.1928665E+00  0.2158028E+01  0.1068594E+00 -0.1605570E+00
  0.8397840E+01  0.5611260E+01 -0.4105000E+00  0.1911768E+00  0.2159712E+01  0.1061910E+00 -0.1589718E+00
  0.7807410E+01  0.6407370E+01 -0.4105000E+00  0.1874290E+00  0.2163093E+01  0.1046356E+00 -0.1555025E+00
  0.7141780E+01  0.7141780E+01 -0.4105000E+00  0.1817502E+00  0.2168611E+01  0.1022958E+00 -0.1502289E+00
  0.6407370E+01  0.7807410E+01 -0.4105000E+00  0.1733802E+00  0.2179193E+01  0.9909597E-01 -0.1422698E+00
  0.5611260E+01  0.8397840E+01 -0.4105000E+00  0.1631497E+00  0.2193915E+01  0.9520943E-01 -0.1324877E+00
  0.4761110E+01  0.8907410E+01 -0.4105000E+00  0.1512572E+00  0.2214676E+01  0.9080014E-01 -0.1209713E+00
  0.3865100E+01  0.9331180E+01 -0.4105000E+00  0.1380517E+00  0.2244169E+01  0.8609261E-01 -0.1079182E+00
  0.2931870E+01  0.9665100E+01 -0.4105000E+00  0.1231285E+00  0.2290134E+01  0.8112773E-01 -0.9262240E-01
  0.1970410E+01  0.9905930E+01 -0.4105000E+00  0.1073440E+00  0.2357909E+01  0.7603366E-01 -0.7577340E-01
  0.9899730E+00  0.1005140E+02 -0.4105000E+00  0.9146861E-01  0.2460306E+01  0.7104947E-01 -0.5760625E-01
 -0.4414850E-06  0.1010000E+02 -0.4105000E+00  0.7672007E-01  0.2616808E+01  0.6639601E-01 -0.3843878E-01
 -0.9899740E+00  0.1005140E+02 -0.4105000E+00  0.6471251E-01  0.2861927E+01  0.6219828E-01 -0.1786289E-01
 -0.1970410E+01  0.9905930E+01 -0.4105000E+00  0.5859621E-01 -0.3078739E+01  0.5848050E-01  0.3680536E-02
 -0.2931880E+01  0.9665100E+01 -0.4105000E+00  0.6114551E-01 -0.2705267E+01  0.5541683E-01  0.2584084E-01
 -0.3865100E+01  0.9331180E+01 -0.4105000E+00  0.7171956E-01 -0.2404457E+01  0.5310092E-01  0.4820776E-01
 -0.4761110E+01  0.8907400E+01 -0.4105000E+00  0.8766315E-01 -0.2200979E+01  0.5165921E-01  0.7082481E-01
 -0.5611260E+01  0.8397840E+01 -0.4105000E+00  0.1065850E+00 -0.2069799E+01  0.5100625E-01  0.9358805E-01
 -0.6407370E+01  0.7807410E+01 -0.4105000E+00  0.1268508E+00 -0.1985856E+01  0.5115192E-01  0.1160801E+00
 -0.7141780E+01  0.7141780E+01 -0.4105000E+00  0.1473977E+00 -0.1931422E+01  0.5201069E-01  0.1379165E+00