 VARIABLES="X" "Y" "Z" "abs(eta) (m)" "angle(phi) (rad)" "PRE1" "PRE2"
ZONE N=   3200 ,E =    3136 ,F=FEPOINT,ET=QUADRILATERAL
  0.1010000E+02  0.0000000E+00  0.0000000E+00  0.1231404E+00  0.2470364E+01  0.9642608E-01 -0.7658697E-01
  0.1005140E+02  0.9899730E+00  0.0000000E+00  0.1033833E+00  0.2601274E+01  0.8865586E-01 -0.5318130E-01
  0.9905930E+01  0.1970410E+01  0.0000000E+00  0.8574618E-01  0.2812181E+01  0.8113585E-01 -0.2773772E-01
  0.9665100E+01  0.2931880E+01  0.0000000E+00  0.7429854E-01  0.3125695E+01  0.7428915E-01 -0.1181087E-02
  0.9331180E+01  0.3865100E+01  0.0000000E+00  0.7320482E-01 -0.2779589E+01  0.6846034E-01  0.2592542E-01
  0.8907400E+01  0.4761110E+01  0.0000000E+00  0.8343837E-01 -0.2439190E+01  0.6368786E-01  0.5390563E-01
  0.8397840E+01  0.5611260E+01  0.0000000E+00  0.1023143E+00 -0.2197150E+01  0.5997609E-01  0.8289201E-01
  0.7807410E+01  0.6407370E+01  0.0000000E+00  0.1258617E+00 -0.2044837E+01  0.5745400E-01  0.1119830E+00
  0.7141780E+01  0.7141780E+01  0.0000000E+00  0.1511507E+00 -0.1951448E+01  0.5615630E-01  0.1403317E+00
  0.6407370E+01  0.7807410E+01  0.0000000E+00  0.1772097E+00 -0.1892920E+01  0.5610141E-01  0.1680950E+00
  0.5611260E+01  0.8397840E+01  0.0000000E+00  0.2037692E+00 -0.1855608E+01  0.5725446E-01  0.1955603E+00
  0.4761110E+01  0.8907410E+01  0.0000000E+00  0.2299065E+00 -0.1832112E+01  0.5939670E-01  0.2221014E+00
  0.3865100E+01  0.9331180E+01  0.0000000E+00  0.2545020E+00 -0.1817894E+01  0.6224880E-01  0.2467718E+00
  0.2931870E+01  0.9665100E+01  0.0000000E+00  0.2774887E+00 -0.1810212E+01  0.6580237E-01  0.2695738E+00
  0.1970410E+01  0.9905930E+01  0.0000000E+00  0.2992424E+00 -0.1806937E+01  0.7000835E-01  0.2909379E+00
  0.9899730E+00  0.1005140E+02  0.0000000E+00  0.3194420E+00 -0.1806058E+01  0.7446111E-01  0.3106425E+00
 -0.4414850E-06  0.1010000E+02  0.0000000E+00  0.3371655E+00 -0.1806558E+01  0.7875649E-01  0.3278383E+00
 -0.9899740E+00  0.1005140E+02  0.0000000E+00  0.3522338E+00 -0.1808301E+01  0.8287289E-01  0.3423459E+00
 -0.1970410E+01  0.9905930E+01  0.0000000E+00  0.3651418E+00 -0.1810744E+01  0.8677649E-01  0.3546807E+00
 -0.2931880E+01  0.9665100E+01  0.0000000E+00  0.3760003E+00 -0.1812884E+01  0.9013855E-01  0.3650360E+00
 -0.3865100E+01  0.9331180E+01  0.0000000E+00  0.3840435E+00 -0.1814509E+01  0.9267263E-01  0.3726945E+00
 -0.4761110E+01  0.8907400E+01  0.0000000E+00  0.3889415E+00 -0.1815856E+01  0.9436283E-01  0.3773210E+00
 -0.5611260E+01  0.8397840E+01  0.0000000E+00  0.3911579E+00 -0.1816651E+01  0.9520196E-01  0.3793957E+00
 -0.6407370E+01  0.7807410E+01  0.0000000E+00  0.3911591E+00 -0.1816458E+01  0.9512902E-01  0.3794152E+00
 -0.7141780E+01  0.7141780E+01  0.0000000E+00  0.3884230E+00 -0.1815605E+01  0.9414241E-01  0.3768416E+00
 -0.7807410E+01  0.6407370E+01  0.0000000E+00  0.3824937E+00 -0.1814361E+01  0.9224345E-01  0.3712042E+00
 -0.8397840E+01  0.5611260E+01  0.0000000E+00  0.3737384E+00 -0.1812472E+01  0.8944681E-01  0.3628769E+00
 -0.8907410E+01  0.4761110E+01  0.0000000E+00  0.3628749E+00 -0.1810038E+01  0.8598886E-01  0.3525395E+00
 -0.9331180E+01  0.3865100E+01  0.0000000E+00  0.3497147E+00 -0.1807938E+01  0.8215673E-01  0.3399274E+00
 -0.9665100E+01  0.2931880E+01  0.0000000E+00  0.3337660E+00 -0.1806611E+01  0.7797940E-01  0.3245288E+00
 -0.9905930E+01  0.1970410E+01  0.0000000E+00  0.3152306E+00 -0.1806051E+01  0.7347726E-01  0.3065476E+00
 -0.1005140E+02  0.9899730E+00  0.0000000E+00  0.2950125E+00 -0.1807053E+01  0.6905217E-01  0.2868173E+00
 -0.1010000E+02 -0.8829700E-06  0.0000000E+00  0.2733369E+00 -0.1811324E+01  0.6511293E-01  0.2654682E+00
 -0.1005140E+02 -0.9899740E+00  0.0000000E+00  0.2497848E+00 -0.1820428E+01  0.6170871E-01  0.2420423E+00
 -0.9905930E+01 -0.1970410E+01  0.0000000E+00  0.2244343E+00 -0.1836121E+01  0.5885180E-01  0.2165808E+00
 -0.9665100E+01 -0.2931880E+01  0.0000000E+00  0.1983339E+00 -0.1861590E+01  0.5686490E-01  0.1900071E+00
 -0.9331180E+01 -0.3865100E+01  0.0000000E+00  0.1722535E+00 -0.1902065E+01  0.5602425E-01  0.1628882E+00
 -0.8907400E+01 -0.4761110E+01  0.0000000E+00  0.1462034E+00 -0.1966600E+01  0.5636868E-01  0.1349000E+00
 -0.8397840E+01 -0.5611260E+01  0.0000000E+00  0.1206980E+00 -0.2070995E+01  0.5788671E-01  0.1059109E+00
 -0.7807400E+01 -0.6407370E+01  0.0000000E+00  0.9785231E-01 -0.2238811E+01  0.6061253E-01  0.7681924E-01
 -0.7141780E+01 -0.7141780E+01  0.0000000E+00  0.8067709E-01 -0.2497027E+01  0.6449012E-01  0.4847491E-01
 -0.6407370E+01 -0.7807410E+01  0.0000000E+00  0.7254631E-01 -0.2851935E+01  0.6952416E-01  0.2072097E-01
 -0.5611260E+01 -0.8397850E+01  0.0000000E+00  0.7597567E-01  0.3052895E+01  0.7567701E-01 -0.6730053E-02
 -0.4761110E+01 -0.8907410E+01  0.0000000E+00  0.8909623E-01  0.2759076E+01  0.8265708E-01 -0.3325576E-01
 -0.3865100E+01 -0.9331190E+01  0.0000000E+00  0.1070907E+00  0.2570282E+01  0.9008393E-01 -0.5790765E-01
 -0.2931870E+01 -0.9665100E+01  0.0000000E+00  0.1268845E+00  0.2452394E+01  0.9792387E-01 -0.8068829E-01
 -0.1970410E+01 -0.9905930E+01  0.0000000E+00  0.1472259E+00  0.2375936E+01  0.1061391E+00 -0.1020291E+00
 -0.9899710E+00 -0.1005140E+02  0.0000000E+00  0.1669559E+00  0.2324725E+01  0.1142827E+00 -0.1217117E+00
  0.1204410E-06 -0.1010000E+02  0.0000000E+00  0.1847648E+00  0.2290975E+01  0.1218558E+00 -0.1388855E+00
  0.9899760E+00 -0.1005140E+02  0.0000000E+00  0.2002838E+00  0.2269341E+01  0.1288032E+00 -0.1533732E+00
  0.1970410E+01 -0.9905930E+01  0.0000000E+00  0.2137953E+00  0.2254905E+01  0.1351149E+00 -0.1656876E+00
  0.2931880E+01 -0.9665100E+01  0.0000000E+00  0.2251995E+00  0.2244277E+01  0.1404593E+00 -0.1760284E+00
  0.3865100E+01 -0.9331180E+01  0.0000000E+00  0.2336863E+00  0.2237302E+01  0.1444749E+00 -0.1836744E+00
  0.4761110E+01 -0.8907410E+01  0.0000000E+00  0.2389459E+00  0.2234020E+01  0.1471096E+00 -0.1882921E+00
  0.5611260E+01 -0.8397840E+01  0.0000000E+00  0.2413649E+00  0.2232918E+01  0.1483891E+00 -0.1903620E+00
  0.6407370E+01 -0.7807410E+01  0.0000000E+00  0.2413191E+00  0.2232533E+01  0.1482876E+00 -0.1903830E+00
  0.7141780E+01 -0.7141780E+01  0.0000000E+00  0.2383549E+00  0.2234102E+01  0.1467609E+00 -0.1878144E+00
  0.7807410E+01 -0.6407370E+01  0.0000000E+00  0.2320849E+00  0.2238899E+01  0.1437761E+00 -0.1821862E+00
  0.8397840E+01 -0.5611260E+01  0.0000000E+00  0.2228433E+00  0.2246547E+01  0.1393847E+00 -0.1738707E+00
  0.8907410E+01 -0.4761110E+01  0.0000000E+00  0.2113670E+00  0.2256809E+01  0.1338920E+00 -0.1635510E+00
  0.9331180E+01 -0.3865100E+01  0.0000000E+00  0.1976483E+00  0.2272462E+01  0.1275802E+00 -0.1509574E+00
  0.9665100E+01 -0.2931870E+01  0.0000000E+00  0.1813579E+00  0.2297178E+01  0.1204522E+00 -0.1355800E+00
  0.9905930E+01 -0.1970410E+01  0.0000000E+00  0.1628028E+00  0.2334232E+01  0.1125630E+00 -0.1176193E+00
  0.1005140E+02 -0.9899690E+00  0.0000000E+00  0.1431357E+00  0.2388276E+01  0.1044066E+00 -0.9791370E-01
  0.1010000E+02  0.0000000E+00 -0.2568960E-01  0.1230365E+00  0.2470283E+01  0.9633848E-01 -0.7653023E-01
  0.1005140E+02  0.9899730E+00 -0.2568960E-01  0.1033018E+00  0.2600983E+01  0.8857045E-01 -0.5316515E-01
  0.9905930E+01  0.1970410E+01 -0.2568960E-01  0.8566955E-01  0.2812105E+01  0.8106124E-01 -0.2771908E-01
  0.9665100E+01  0.2931880E+01 -0.2568960E-01  0.7422431E-01  0.3125339E+01  0.7421450E-01 -0.1206357E-02
  0.9331180E+01  0.3865100E+01 -0.2568960E-01  0.7313337E-01 -0.2779660E+01  0.6839538E-01  0.2589521E-01
  0.8907400E+01  0.4761110E+01 -0.2568960E-01  0.8334872E-01 -0.2439180E+01  0.6361888E-01  0.5384837E-01
  0.8397840E+01  0.5611260E+01 -0.2568960E-01  0.1022180E+00 -0.2197153E+01  0.5991986E-01  0.8281382E-01
  0.7807410E+01  0.6407370E+01 -0.2568960E-01  0.1257404E+00 -0.2044763E+01  0.5739033E-01  0.1118794E+00
  0.7141780E+01  0.7141780E+01 -0.2568960E-01  0.1510122E+00 -0.1951428E+01  0.5610209E-01  0.1402043E+00
  0.6407370E+01  0.7807410E+01 -0.2568960E-01  0.1770616E+00 -0.1892837E+01  0.5604049E-01  0.1679592E+00
  0.5611260E+01  0.8397840E+01 -0.2568960E-01  0.2035846E+00 -0.1855601E+01  0.5720111E-01  0.1953835E+00
  0.4761110E+01  0.8907410E+01 -0.2568960E-01  0.2297174E+00 -0.1832052E+01  0.5933448E-01  0.2219223E+00
  0.3865100E+01  0.9331180E+01 -0.2568960E-01  0.2542774E+00 -0.1817882E+01  0.6219094E-01  0.2465549E+00
  0.2931870E+01  0.9665100E+01 -0.2568960E-01  0.2772723E+00 -0.1810172E+01  0.6574024E-01  0.2693662E+00
  0.1970410E+01  0.9905930E+01 -0.2568960E-01  0.2989750E+00 -0.1806934E+01  0.6994501E-01  0.2906781E+00
  0.9899730E+00  0.1005140E+02 -0.2568960E-01  0.3191927E+00 -0.1806028E+01  0.7439381E-01  0.3104022E+00
 -0.4414850E-06  0.1010000E+02 -0.2568960E-01  0.3368707E+00 -0.1806556E+01  0.7868668E-01  0.3275520E+00
 -0.9899740E+00  0.1005140E+02 -0.2568960E-01  0.3519662E+00 -0.1808285E+01  0.8280436E-01  0.3420872E+00
 -0.1970410E+01  0.9905930E+01 -0.2568960E-01  0.3648167E+00 -0.1810745E+01  0.8669971E-01  0.3543648E+00
 -0.2931880E+01  0.9665100E+01 -0.2568960E-01  0.3757135E+00 -0.1812873E+01  0.9006558E-01  0.3647586E+00
 -0.3865100E+01  0.9331180E+01 -0.2568960E-01  0.3837089E+00 -0.1814511E+01  0.9259254E-01  0.3723696E+00
 -0.4761110E+01  0.8907400E+01 -0.2568960E-01  0.3886465E+00 -0.1815850E+01  0.9428905E-01  0.3770353E+00
 -0.5611260E+01  0.8397840E+01 -0.2568960E-01  0.3908094E+00 -0.1816654E+01  0.9511837E-01  0.3790574E+00
 -0.6407370E+01  0.7807410E+01 -0.2568960E-01  0.3908620E+00 -0.1816452E+01  0.9505474E-01  0.3791275E+00
 -0.7141780E+01  0.7141780E+01 -0.2568960E-01  0.3880843E+00 -0.1815607E+01  0.9406120E-01  0.3765128E+00
 -0.7807410E+01  0.6407370E+01 -0.2568960E-01  0.3822022E+00 -0.1814351E+01  0.9216971E-01  0.3709221E+00
 -0.8397840E+01  0.5611260E+01 -0.2568960E-01  0.3734059E+00 -0.1812474E+01  0.8936790E-01  0.3625539E+00
 -0.8907410E+01  0.4761110E+01 -0.2568960E-01  0.3625996E+00 -0.1810025E+01  0.8591907E-01  0.3522731E+00
 -0.9331180E+01  0.3865100E+01 -0.2568960E-01  0.3494088E+00 -0.1807936E+01  0.8208438E-01  0.3396302E+00
 -0.9665100E+01  0.2931880E+01 -0.2568960E-01  0.3335079E+00 -0.1806586E+01  0.7791096E-01  0.3242798E+00
 -0.9905930E+01  0.1970410E+01 -0.2568960E-01  0.3149481E+00 -0.1806050E+01  0.7341123E-01  0.3062729E+00
 -0.1005140E+02  0.9899730E+00 -0.2568960E-01  0.2947840E+00 -0.1807019E+01  0.6898884E-01  0.2865975E+00
 -0.1010000E+02 -0.8829700E-06 -0.2568960E-01  0.2730961E+00 -0.1811314E+01  0.6505308E-01  0.2652349E+00
 -0.1005140E+02 -0.9899740E+00 -0.2568960E-01  0.2495821E+00 -0.1820375E+01  0.6164582E-01  0.2418492E+00
 -0.9905930E+01 -0.1970410E+01 -0.2568960E-01  0.2242321E+00 -0.1836114E+01  0.5879726E-01  0.2163860E+00
 -0.9665100E+01 -0.2931880E+01 -0.2568960E-01  0.1981718E+00 -0.1861516E+01  0.5680441E-01  0.1898561E+00
 -0.9331180E+01 -0.3865100E+01 -0.2568960E-01  0.1720978E+00 -0.1902045E+01  0.5597033E-01  0.1627420E+00
 -0.8907400E+01 -0.4761110E+01 -0.2568960E-01  0.1460694E+00 -0.1966517E+01  0.5630586E-01  0.1347810E+00
 -0.8397840E+01 -0.5611260E+01 -0.2568960E-01  0.1205857E+00 -0.2070989E+01  0.5783230E-01  0.1058128E+00
 -0.7807400E+01 -0.6407370E+01 -0.2568960E-01  0.9775352E-01 -0.2238739E+01  0.6054584E-01  0.7674602E-01
 -0.7141780E+01 -0.7141780E+01 -0.2568960E-01  0.8059820E-01 -0.2497056E+01  0.6442844E-01  0.4842567E-01
 -0.6407370E+01 -0.7807410E+01 -0.2568960E-01  0.7246596E-01 -0.2852186E+01  0.6945234E-01  0.2068060E-01
 -0.5611260E+01 -0.8397850E+01 -0.2568960E-01  0.7590594E-01  0.3052815E+01  0.7560701E-01 -0.6729928E-02
 -0.4761110E+01 -0.8907410E+01 -0.2568960E-01  0.8901978E-01  0.2758759E+01  0.8257560E-01 -0.3325341E-01
 -0.3865100E+01 -0.9331190E+01 -0.2568960E-01  0.1069991E+00  0.2570185E+01  0.9000126E-01 -0.5786688E-01
 -0.2931870E+01 -0.9665100E+01 -0.2568960E-01  0.1267968E+00  0.2452135E+01  0.9783530E-01 -0.8065778E-01
 -0.1970410E+01 -0.9905930E+01 -0.2568960E-01  0.1470989E+00  0.2375894E+01  0.1060434E+00 -0.1019455E+00
 -0.9899710E+00 -0.1005140E+02 -0.2568960E-01  0.1668412E+00  0.2324548E+01  0.1141826E+00 -0.1216483E+00
  0.1204410E-06 -0.1010000E+02 -0.2568960E-01  0.1846109E+00  0.2290928E+01  0.1217478E+00 -0.1387756E+00
  0.9899760E+00 -0.1005140E+02 -0.2568960E-01  0.2001521E+00  0.2269200E+01  0.1286970E+00 -0.1532903E+00
  0.1970410E+01 -0.9905930E+01 -0.2568960E-01  0.2136109E+00  0.2254883E+01  0.1349946E+00 -0.1655478E+00
  0.2931880E+01 -0.9665100E+01 -0.2568960E-01  0.2250491E+00  0.2244161E+01  0.1403450E+00 -0.1759272E+00
  0.3865100E+01 -0.9331180E+01 -0.2568960E-01  0.2334916E+00  0.2237270E+01  0.1443487E+00 -0.1835260E+00
  0.4761110E+01 -0.8907410E+01 -0.2568960E-01  0.2387881E+00  0.2233915E+01  0.1469926E+00 -0.1881832E+00
  0.5611260E+01 -0.8397840E+01 -0.2568960E-01  0.2411568E+00  0.2232899E+01  0.1482575E+00 -0.1902007E+00
  0.6407370E+01 -0.7807410E+01 -0.2568960E-01  0.2411594E+00  0.2232428E+01  0.1481696E+00 -0.1902725E+00
  0.7141780E+01 -0.7141780E+01 -0.2568960E-01  0.2381564E+00  0.2234071E+01  0.1466330E+00 -0.1876625E+00
  0.7807410E+01 -0.6407370E+01 -0.2568960E-01  0.2319300E+00  0.2238788E+01  0.1436599E+00 -0.1820807E+00
  0.8397840E+01 -0.5611260E+01 -0.2568960E-01  0.2226514E+00  0.2246526E+01  0.1392611E+00 -0.1737239E+00
  0.8907410E+01 -0.4761110E+01 -0.2568960E-01  0.2112280E+00  0.2256680E+01  0.1337828E+00 -0.1634608E+00
  0.9331180E+01 -0.3865100E+01 -0.2568960E-01  0.1974837E+00  0.2272420E+01  0.1274675E+00 -0.1508371E+00
  0.9665100E+01 -0.2931870E+01 -0.2568960E-01  0.1812345E+00  0.2297018E+01  0.1203487E+00 -0.1355070E+00
  0.9905930E+01 -0.1970410E+01 -0.2568960E-01  0.1626626E+00  0.2334196E+01  0.1124619E+00 -0.1175220E+00
  0.1005140E+02 -0.9899690E+00 -0.2568960E-01  0.1430393E+00  0.2388053E+01  0.1043146E+00 -0.9787098E-01
  0.1010000E+02  0.0000000E+00 -0.1027320E+00  0.1227099E+00  0.2470170E+01  0.9607420E-01 -0.7633793E-01
  0.1005140E+02  0.9899730E+00 -0.1027320E+00  0.1030243E+00  0.2600718E+01  0.8831850E-01 -0.5304574E-01
  0.9905930E+01  0.1970410E+01 -0.1027320E+00  0.8543313E-01  0.2812021E+01  0.8083519E-01 -0.2764942E-01
  0.9665100E+01  0.2931880E+01 -0.1027320E+00  0.7401168E-01  0.3124858E+01  0.7400132E-01 -0.1238477E-02
  0.9331180E+01  0.3865100E+01 -0.1027320E+00  0.7291976E-01 -0.2779748E+01  0.6819787E-01  0.2581360E-01
  0.8907400E+01  0.4761110E+01 -0.1027320E+00  0.8310418E-01 -0.2439059E+01  0.6342573E-01  0.5369805E-01
  0.8397840E+01  0.5611260E+01 -0.1027320E+00  0.1019289E+00 -0.2197122E+01  0.5974783E-01  0.8258150E-01
  0.7807410E+01  0.6407370E+01 -0.1027320E+00  0.1253760E+00 -0.2044677E+01  0.5721441E-01  0.1115601E+00
  0.7141780E+01  0.7141780E+01 -0.1027320E+00  0.1505926E+00 -0.1951362E+01  0.5593697E-01  0.1398184E+00
  0.6407370E+01  0.7807410E+01 -0.1027320E+00  0.1765913E+00 -0.1892723E+01  0.5587257E-01  0.1675193E+00
  0.5611260E+01  0.8397840E+01 -0.1027320E+00  0.2030212E+00 -0.1855582E+01  0.5703918E-01  0.1948439E+00
  0.4761110E+01  0.8907410E+01 -0.1027320E+00  0.2290954E+00 -0.1831983E+01  0.5915870E-01  0.2213254E+00
  0.3865100E+01  0.9331180E+01 -0.1027320E+00  0.2535855E+00 -0.1817863E+01  0.6201716E-01  0.2458851E+00
  0.2931870E+01  0.9665100E+01 -0.1027320E+00  0.2765502E+00 -0.1810142E+01  0.6556091E-01  0.2686667E+00
  0.1970410E+01  0.9905930E+01 -0.1027320E+00  0.2981524E+00 -0.1806948E+01  0.6975652E-01  0.2898774E+00
  0.9899730E+00  0.1005140E+02 -0.1027320E+00  0.3183484E+00 -0.1806013E+01  0.7419230E-01  0.3095824E+00
 -0.4414850E-06  0.1010000E+02 -0.1027320E+00  0.3359590E+00 -0.1806575E+01  0.7848018E-01  0.3266639E+00
 -0.9899740E+00  0.1005140E+02 -0.1027320E+00  0.3510517E+00 -0.1808302E+01  0.8259503E-01  0.3411970E+00
 -0.1970410E+01  0.9905930E+01 -0.1027320E+00  0.3638144E+00 -0.1810780E+01  0.8647383E-01  0.3533881E+00
 -0.2931880E+01  0.9665100E+01 -0.1027320E+00  0.3747298E+00 -0.1812894E+01  0.8983754E-01  0.3638016E+00
 -0.3865100E+01  0.9331180E+01 -0.1027320E+00  0.3826725E+00 -0.1814551E+01  0.9235715E-01  0.3713602E+00
 -0.4761110E+01  0.8907400E+01 -0.1027320E+00  0.3876351E+00 -0.1815885E+01  0.9405661E-01  0.3760509E+00
 -0.5611260E+01  0.8397840E+01 -0.1027320E+00  0.3897370E+00 -0.1816696E+01  0.9487347E-01  0.3780132E+00
 -0.6407370E+01  0.7807410E+01 -0.1027320E+00  0.3898449E+00 -0.1816486E+01  0.9482027E-01  0.3781377E+00
 -0.7141780E+01  0.7141780E+01 -0.1027320E+00  0.3870372E+00 -0.1815649E+01  0.9382284E-01  0.3754931E+00
 -0.7807410E+01  0.6407370E+01 -0.1027320E+00  0.3812031E+00 -0.1814377E+01  0.9193827E-01  0.3699502E+00
 -0.8397840E+01  0.5611260E+01 -0.1027320E+00  0.3723804E+00 -0.1812511E+01  0.8913591E-01  0.3615549E+00
 -0.8907410E+01  0.4761110E+01 -0.1027320E+00  0.3616571E+00 -0.1810048E+01  0.8570386E-01  0.3513556E+00
 -0.9331180E+01  0.3865100E+01 -0.1027320E+00  0.3484639E+00 -0.1807961E+01  0.8187090E-01  0.3387097E+00
 -0.9665100E+01  0.2931880E+01 -0.1027320E+00  0.3326274E+00 -0.1806580E+01  0.7770340E-01  0.3234242E+00
 -0.9905930E+01  0.1970410E+01 -0.1027320E+00  0.3140817E+00 -0.1806069E+01  0.7321493E-01  0.3054290E+00
 -0.1005140E+02  0.9899730E+00 -0.1027320E+00  0.2940166E+00 -0.1807002E+01  0.6880433E-01  0.2858527E+00
 -0.1010000E+02 -0.8829700E-06 -0.1027320E+00  0.2723541E+00 -0.1811305E+01  0.6487384E-01  0.2645150E+00
 -0.1005140E+02 -0.9899740E+00 -0.1027320E+00  0.2489111E+00 -0.1820318E+01  0.6146630E-01  0.2412024E+00
 -0.9905930E+01 -0.1970410E+01 -0.1027320E+00  0.2236124E+00 -0.1836104E+01  0.5863252E-01  0.2157886E+00
 -0.9665100E+01 -0.2931880E+01 -0.1027320E+00  0.1976489E+00 -0.1861423E+01  0.5663680E-01  0.1893604E+00
 -0.9331180E+01 -0.3865100E+01 -0.1027320E+00  0.1716227E+00 -0.1901988E+01  0.5580653E-01  0.1622960E+00
 -0.8907400E+01 -0.4761110E+01 -0.1027320E+00  0.1456545E+00 -0.1966421E+01  0.5613301E-01  0.1344036E+00
 -0.8397840E+01 -0.5611260E+01 -0.1027320E+00  0.1202469E+00 -0.2070953E+01  0.5766600E-01  0.1055176E+00
 -0.7807400E+01 -0.6407370E+01 -0.1027320E+00  0.9747543E-01 -0.2238573E+01  0.6036086E-01  0.7653774E-01
 -0.7141780E+01 -0.7141780E+01 -0.1027320E+00  0.8036305E-01 -0.2497061E+01  0.6424072E-01  0.4828405E-01
 -0.6407370E+01 -0.7807410E+01 -0.1027320E+00  0.7224644E-01 -0.2852555E+01  0.6924955E-01  0.2059243E-01
 -0.5611260E+01 -0.8397850E+01 -0.1027320E+00  0.7569338E-01  0.3052728E+01  0.7539470E-01 -0.6717634E-02
 -0.4761110E+01 -0.8907410E+01 -0.1027320E+00  0.8877271E-01  0.2758479E+01  0.8233715E-01 -0.3318415E-01
 -0.3865100E+01 -0.9331190E+01 -0.1027320E+00  0.1067125E+00  0.2570043E+01  0.8975202E-01 -0.5772465E-01
 -0.2931870E+01 -0.9665100E+01 -0.1027320E+00  0.1264836E+00  0.2451858E+01  0.9757128E-01 -0.8048566E-01
 -0.1970410E+01 -0.9905930E+01 -0.1027320E+00  0.1467021E+00  0.2375877E+01  0.1057556E+00 -0.1016724E+00
 -0.9899710E+00 -0.1005140E+02 -0.1027320E+00  0.1664174E+00  0.2324400E+01  0.1138747E+00 -0.1213562E+00
  0.1204410E-06 -0.1010000E+02 -0.1027320E+00  0.1841272E+00  0.2290894E+01  0.1214242E+00 -0.1384161E+00
  0.9899760E+00 -0.1005140E+02 -0.1027320E+00  0.1996619E+00  0.2269097E+01  0.1283659E+00 -0.1529282E+00
  0.1970410E+01 -0.9905930E+01 -0.1027320E+00  0.2130370E+00  0.2254908E+01  0.1346361E+00 -0.1650995E+00
  0.2931880E+01 -0.9665100E+01 -0.1027320E+00  0.2244881E+00  0.2244089E+01  0.1399826E+00 -0.1754986E+00
  0.3865100E+01 -0.9331180E+01 -0.1027320E+00  0.2328814E+00  0.2237277E+01  0.1439727E+00 -0.1830453E+00
  0.4761110E+01 -0.8907410E+01 -0.1027320E+00  0.2381992E+00  0.2233860E+01  0.1466198E+00 -0.1877271E+00
  0.5611260E+01 -0.8397840E+01 -0.1027320E+00  0.2405092E+00  0.2232937E+01  0.1478667E+00 -0.1896843E+00
  0.6407370E+01 -0.7807410E+01 -0.1027320E+00  0.2405639E+00  0.2232377E+01  0.1477939E+00 -0.1898103E+00
  0.7141780E+01 -0.7141780E+01 -0.1027320E+00  0.2375340E+00  0.2234081E+01  0.1462517E+00 -0.1871706E+00
  0.7807410E+01 -0.6407370E+01 -0.1027320E+00  0.2313532E+00  0.2238724E+01  0.1432911E+00 -0.1816369E+00
  0.8397840E+01 -0.5611260E+01 -0.1027320E+00  0.2220530E+00  0.2246556E+01  0.1388920E+00 -0.1732529E+00
  0.8907410E+01 -0.4761110E+01 -0.1027320E+00  0.2107103E+00  0.2256592E+01  0.1334405E+00 -0.1630719E+00
  0.9331180E+01 -0.3865100E+01 -0.1027320E+00  0.1969667E+00  0.2272398E+01  0.1271305E+00 -0.1504450E+00
  0.9665100E+01 -0.2931870E+01 -0.1027320E+00  0.1807768E+00  0.2296892E+01  0.1200277E+00 -0.1351800E+00
  0.9905930E+01 -0.1970410E+01 -0.1027320E+00  0.1622243E+00  0.2334191E+01  0.1121583E+00 -0.1172059E+00
  0.1005140E+02 -0.9899690E+00 -0.1027320E+00  0.1426882E+00  0.2387828E+01  0.1040365E+00 -0.9765411E-01
  0.1010000E+02  0.0000000E+00 -0.2310450E+00  0.1221901E+00  0.2469823E+01  0.9564079E-01 -0.7604775E-01
  0.1005140E+02  0.9899730E+00 -0.2310450E+00  0.1025699E+00  0.2600368E+01  0.8791043E-01 -0.5284254E-01
  0.9905930E+01  0.1970410E+01 -0.2310450E+00  0.8506267E-01  0.2811123E+01  0.8045994E-01 -0.2760175E-01
  0.9665100E+01  0.2931880E+01 -0.2310450E+00  0.7367784E-01  0.3124071E+01  0.7366653E-01 -0.1290887E-02
  0.9331180E+01  0.3865100E+01 -0.2310450E+00  0.7257427E-01 -0.2780094E+01  0.6788365E-01  0.2566778E-01
  0.8907400E+01  0.4761110E+01 -0.2310450E+00  0.8271801E-01 -0.2439003E+01  0.6312802E-01  0.5345204E-01
  0.8397840E+01  0.5611260E+01 -0.2310450E+00  0.1014411E+00 -0.2197064E+01  0.5945710E-01  0.8218968E-01
  0.7807410E+01  0.6407370E+01 -0.2310450E+00  0.1247801E+00 -0.2044716E+01  0.5694681E-01  0.1110277E+00
  0.7141780E+01  0.7141780E+01 -0.2310450E+00  0.1499086E+00 -0.1951318E+01  0.5567679E-01  0.1391858E+00
  0.6407370E+01  0.7807410E+01 -0.2310450E+00  0.1758179E+00 -0.1892644E+01  0.5561472E-01  0.1667901E+00
  0.5611260E+01  0.8397840E+01 -0.2310450E+00  0.2021385E+00 -0.1855446E+01  0.5676478E-01  0.1940045E+00
  0.4761110E+01  0.8907410E+01 -0.2310450E+00  0.2280625E+00 -0.1831931E+01  0.5888057E-01  0.2203306E+00
  0.3865100E+01  0.9331180E+01 -0.2310450E+00  0.2524631E+00 -0.1817828E+01  0.6173395E-01  0.2447989E+00
  0.2931870E+01  0.9665100E+01 -0.2310450E+00  0.2753519E+00 -0.1810114E+01  0.6526930E-01  0.2675043E+00
  0.1970410E+01  0.9905930E+01 -0.2310450E+00  0.2968936E+00 -0.1806871E+01  0.6943975E-01  0.2886589E+00
  0.9899730E+00  0.1005140E+02 -0.2310450E+00  0.3169439E+00 -0.1805974E+01  0.7385281E-01  0.3082193E+00
 -0.4414850E-06  0.1010000E+02 -0.2310450E+00  0.3344865E+00 -0.1806556E+01  0.7812987E-01  0.3252337E+00
 -0.9899740E+00  0.1005140E+02 -0.2310450E+00  0.3495323E+00 -0.1808292E+01  0.8223438E-01  0.3397210E+00
 -0.1970410E+01  0.9905930E+01 -0.2310450E+00  0.3622951E+00 -0.1810739E+01  0.8609834E-01  0.3519159E+00
 -0.2931880E+01  0.9665100E+01 -0.2310450E+00  0.3730943E+00 -0.1812871E+01  0.8943716E-01  0.3622158E+00
 -0.3865100E+01  0.9331180E+01 -0.2310450E+00  0.3810018E+00 -0.1814540E+01  0.9194987E-01  0.3697399E+00
 -0.4761110E+01  0.8907400E+01 -0.2310450E+00  0.3859533E+00 -0.1815876E+01  0.9364518E-01  0.3744203E+00
 -0.5611260E+01  0.8397840E+01 -0.2310450E+00  0.3881141E+00 -0.1816669E+01  0.9446806E-01  0.3764417E+00
 -0.6407370E+01  0.7807410E+01 -0.2310450E+00  0.3881524E+00 -0.1816476E+01  0.9440482E-01  0.3764970E+00
 -0.7141780E+01  0.7141780E+01 -0.2310450E+00  0.3853475E+00 -0.1815639E+01  0.9340953E-01  0.3738548E+00
 -0.7807410E+01  0.6407370E+01 -0.2310450E+00  0.3795415E+00 -0.1814358E+01  0.9153040E-01  0.3683394E+00
 -0.8397840E+01  0.5611260E+01 -0.2310450E+00  0.3708265E+00 -0.1812475E+01  0.8875106E-01  0.3600494E+00
 -0.8907410E+01  0.4761110E+01 -0.2310450E+00  0.3600917E+00 -0.1810039E+01  0.8532991E-01  0.3498354E+00
 -0.9331180E+01  0.3865100E+01 -0.2310450E+00  0.3469383E+00 -0.1807944E+01  0.8150672E-01  0.3372281E+00
 -0.9665100E+01  0.2931880E+01 -0.2310450E+00  0.3311631E+00 -0.1806544E+01  0.7734980E-01  0.3220031E+00
 -0.9905930E+01  0.1970410E+01 -0.2310450E+00  0.3127595E+00 -0.1806001E+01  0.7288626E-01  0.3041482E+00
 -0.1005140E+02  0.9899730E+00 -0.2310450E+00  0.2927439E+00 -0.1806979E+01  0.6849989E-01  0.2846169E+00
 -0.1010000E+02 -0.8829700E-06 -0.2310450E+00  0.2711521E+00 -0.1811273E+01  0.6457911E-01  0.2633496E+00
 -0.1005140E+02 -0.9899740E+00 -0.2310450E+00  0.2477952E+00 -0.1820267E+01  0.6117851E-01  0.2401243E+00
 -0.9905930E+01 -0.1970410E+01 -0.2310450E+00  0.2226488E+00 -0.1835979E+01  0.5835309E-01  0.2148660E+00
 -0.9665100E+01 -0.2931880E+01 -0.2310450E+00  0.1967869E+00 -0.1861357E+01  0.5637737E-01  0.1885383E+00
 -0.9331180E+01 -0.3865100E+01 -0.2310450E+00  0.1708492E+00 -0.1901940E+01  0.5554736E-01  0.1615672E+00
 -0.8907400E+01 -0.4761110E+01 -0.2310450E+00  0.1449726E+00 -0.1966414E+01  0.5586921E-01  0.1337747E+00
 -0.8397840E+01 -0.5611260E+01 -0.2310450E+00  0.1196880E+00 -0.2070824E+01  0.5738433E-01  0.1050345E+00
 -0.7807400E+01 -0.6407370E+01 -0.2310450E+00  0.9703109E-01 -0.2238465E+01  0.6007750E-01  0.7619531E-01
 -0.7141780E+01 -0.7141780E+01 -0.2310450E+00  0.7998017E-01 -0.2497246E+01  0.6394354E-01  0.4804219E-01
 -0.6407370E+01 -0.7807410E+01 -0.2310450E+00  0.7190238E-01 -0.2853244E+01  0.6893387E-01  0.2044684E-01
 -0.5611260E+01 -0.8397850E+01 -0.2310450E+00  0.7534412E-01  0.3051838E+01  0.7504084E-01 -0.6753400E-02
 -0.4761110E+01 -0.8907410E+01 -0.2310450E+00  0.8837333E-01  0.2758121E+01  0.8195488E-01 -0.3306424E-01
 -0.3865100E+01 -0.9331190E+01 -0.2310450E+00  0.1062566E+00  0.2569641E+01  0.8934545E-01 -0.5751392E-01
 -0.2931870E+01 -0.9665100E+01 -0.2310450E+00  0.1259673E+00  0.2451435E+01  0.9713908E-01 -0.8019819E-01
 -0.1970410E+01 -0.9905930E+01 -0.2310450E+00  0.1461238E+00  0.2375330E+01  0.1052833E+00 -0.1013291E+00
 -0.9899710E+00 -0.1005140E+02 -0.2310450E+00  0.1657081E+00  0.2324142E+01  0.1133581E+00 -0.1208681E+00
  0.1204410E-06 -0.1010000E+02 -0.2310450E+00  0.1833529E+00  0.2290672E+01  0.1208830E+00 -0.1378607E+00
  0.9899760E+00 -0.1005140E+02 -0.2310450E+00  0.1988401E+00  0.2268870E+01  0.1278031E+00 -0.1523278E+00
  0.1970410E+01 -0.9905930E+01 -0.2310450E+00  0.2122056E+00  0.2254554E+01  0.1340524E+00 -0.1645028E+00
  0.2931880E+01 -0.9665100E+01 -0.2310450E+00  0.2235439E+00  0.2243892E+01  0.1393594E+00 -0.1747880E+00
  0.3865100E+01 -0.9331180E+01 -0.2310450E+00  0.2319020E+00  0.2237106E+01  0.1433361E+00 -0.1823001E+00
  0.4761110E+01 -0.8907410E+01 -0.2310450E+00  0.2372081E+00  0.2233679E+01  0.1459758E+00 -0.1869725E+00
  0.5611260E+01 -0.8397840E+01 -0.2310450E+00  0.2395706E+00  0.2232634E+01  0.1472323E+00 -0.1889887E+00
  0.6407370E+01 -0.7807410E+01 -0.2310450E+00  0.2395609E+00  0.2232196E+01  0.1471436E+00 -0.1890454E+00
  0.7141780E+01 -0.7141780E+01 -0.2310450E+00  0.2365349E+00  0.2233914E+01  0.1456054E+00 -0.1864077E+00
  0.7807410E+01 -0.6407370E+01 -0.2310450E+00  0.2303820E+00  0.2238534E+01  0.1426551E+00 -0.1809015E+00
  0.8397840E+01 -0.5611260E+01 -0.2310450E+00  0.2211865E+00  0.2246219E+01  0.1382919E+00 -0.1726234E+00
  0.8907410E+01 -0.4761110E+01 -0.2310450E+00  0.2098407E+00  0.2256382E+01  0.1328557E+00 -0.1624269E+00
  0.9331180E+01 -0.3865100E+01 -0.2310450E+00  0.1961387E+00  0.2272192E+01  0.1265653E+00 -0.1498386E+00
  0.9665100E+01 -0.2931870E+01 -0.2310450E+00  0.1800090E+00  0.2296651E+01  0.1194855E+00 -0.1346345E+00
  0.9905930E+01 -0.1970410E+01 -0.2310450E+00  0.1615879E+00  0.2333702E+01  0.1116612E+00 -0.1168008E+00
  0.1005140E+02 -0.9899690E+00 -0.2310450E+00  0.1421061E+00  0.2387470E+01  0.1035771E+00 -0.9729289E-01
  0.1010000E+02  0.0000000E+00 -0.4105000E+00  0.1214808E+00  0.2469278E+01  0.9504441E-01 -0.7565813E-01
  0.1005140E+02  0.9899730E+00 -0.4105000E+00  0.1019421E+00  0.2599994E+01  0.8735277E-01 -0.5255178E-01
  0.9905930E+01  0.1970410E+01 -0.4105000E+00  0.8455358E-01  0.2810107E+01  0.7995047E-01 -0.2751781E-01
  0.9665100E+01  0.2931880E+01 -0.4105000E+00  0.7322430E-01  0.3123090E+01  0.7321177E-01 -0.1354795E-02
  0.9331180E+01  0.3865100E+01 -0.4105000E+00  0.7209777E-01 -0.2780689E+01  0.6745309E-01  0.2545915E-01
  0.8907400E+01  0.4761110E+01 -0.4105000E+00  0.8219161E-01 -0.2439027E+01  0.6272756E-01  0.5311038E-01
  0.8397840E+01  0.5611260E+01 -0.4105000E+00  0.1007745E+00 -0.2197114E+01  0.5907053E-01  0.8164667E-01
  0.7807410E+01  0.6407370E+01 -0.4105000E+00  0.1239592E+00 -0.2044860E+01  0.5658804E-01  0.1102891E+00
  0.7141780E+01  0.7141780E+01 -0.4105000E+00  0.1489629E+00 -0.1951285E+01  0.5532098E-01  0.1383096E+00
  0.6407370E+01  0.7807410E+01 -0.4105000E+00  0.1747396E+00 -0.1892615E+01  0.5526878E-01  0.1657688E+00
  0.5611260E+01  0.8397840E+01 -0.4105000E+00  0.2009016E+00 -0.1855346E+01  0.5639820E-01  0.1928229E+00
  0.4761110E+01  0.8907410E+01 -0.4105000E+00  0.2266227E+00 -0.1831916E+01  0.5850540E-01  0.2189406E+00
  0.3865100E+01  0.9331180E+01 -0.4105000E+00  0.2509163E+00 -0.1817786E+01  0.6134551E-01  0.2433017E+00
  0.2931870E+01  0.9665100E+01 -0.4105000E+00  0.2736739E+00 -0.1810111E+01  0.6487080E-01  0.2658743E+00
  0.1970410E+01  0.9905930E+01 -0.4105000E+00  0.2951178E+00 -0.1806807E+01  0.6900606E-01  0.2869367E+00
  0.9899730E+00  0.1005140E+02 -0.4105000E+00  0.3149786E+00 -0.1805945E+01  0.7338601E-01  0.3063103E+00
 -0.4414850E-06  0.1010000E+02 -0.4105000E+00  0.3324580E+00 -0.1806529E+01  0.7764733E-01  0.3232634E+00
 -0.9899740E+00  0.1005140E+02 -0.4105000E+00  0.3474025E+00 -0.1808293E+01  0.8173339E-01  0.3376510E+00
 -0.1970410E+01  0.9905930E+01 -0.4105000E+00  0.3601466E+00 -0.1810699E+01  0.8557383E-01  0.3498324E+00
 -0.2931880E+01  0.9665100E+01 -0.4105000E+00  0.3708026E+00 -0.1812849E+01  0.8887985E-01  0.3599929E+00
 -0.3865100E+01  0.9331180E+01 -0.4105000E+00  0.3787001E+00 -0.1814521E+01  0.9138754E-01  0.3675079E+00
 -0.4761110E+01  0.8907400E+01 -0.4105000E+00  0.3835967E+00 -0.1815868E+01  0.9307039E-01  0.3721349E+00
 -0.5611260E+01  0.8397840E+01 -0.4105000E+00  0.3858187E+00 -0.1816638E+01  0.9389758E-01  0.3742183E+00
 -0.6407370E+01  0.7807410E+01 -0.4105000E+00  0.3857807E+00 -0.1816466E+01  0.9382403E-01  0.3741976E+00
 -0.7141780E+01  0.7141780E+01 -0.4105000E+00  0.3830201E+00 -0.1815621E+01  0.9283869E-01  0.3715984E+00