 VARIABLES="X" "Y" "Z" "abs(eta) (m)" "angle(phi) (rad)" "PRE1" "PRE2"
ZONE N=   3200 ,E =    3136 ,F=FEPOINT,ET=QUADRILATERAL
  0.1010000E+02  0.0000000E+00  0.0000000E+00  0.1951455E+00  0.2157794E+01  0.1080841E+00 -0.1624795E+00
  0.1005140E+02  0.9899730E+00  0.0000000E+00  0.1937235E+00  0.2159499E+01  0.1075713E+00 -0.1611124E+00
  0.9905930E+01  0.1970410E+01  0.0000000E+00  0.1904159E+00  0.2162428E+01  0.1061980E+00 -0.1580512E+00
  0.9665100E+01  0.2931880E+01  0.0000000E+00  0.1846313E+00  0.2168410E+01  0.1038868E+00 -0.1526311E+00
  0.9331180E+01  0.3865100E+01  0.0000000E+00  0.1771437E+00  0.2176697E+01  0.1008838E+00 -0.1456103E+00
  0.8907400E+01  0.4761110E+01  0.0000000E+00  0.1671298E+00  0.2190884E+01  0.9712019E-01 -0.1360149E+00
  0.8397840E+01  0.5611260E+01  0.0000000E+00  0.1554905E+00  0.2210116E+01  0.9277335E-01 -0.1247815E+00
  0.7807410E+01  0.6407370E+01  0.0000000E+00  0.1419973E+00  0.2238989E+01  0.8797699E-01 -0.1114598E+00
  0.7141780E+01  0.7141780E+01  0.0000000E+00  0.1275378E+00  0.2279582E+01  0.8301593E-01 -0.9682066E-01
  0.6407370E+01  0.7807410E+01  0.0000000E+00  0.1117726E+00  0.2342494E+01  0.7794491E-01 -0.8011057E-01
  0.5611260E+01  0.8397840E+01  0.0000000E+00  0.9571604E-01  0.2436169E+01  0.7287218E-01 -0.6205810E-01
  0.4761110E+01  0.8907410E+01  0.0000000E+00  0.8024815E-01  0.2583218E+01  0.6805984E-01 -0.4251616E-01
  0.3865100E+01  0.9331180E+01  0.0000000E+00  0.6744023E-01  0.2806151E+01  0.6368146E-01 -0.2220039E-01
  0.2931870E+01  0.9665100E+01  0.0000000E+00  0.5987604E-01  0.3129718E+01  0.5987182E-01 -0.7109777E-03
  0.1970410E+01  0.9905930E+01  0.0000000E+00  0.6058123E-01 -0.2777947E+01  0.5661961E-01  0.2154774E-01
  0.9899730E+00  0.1005140E+02  0.0000000E+00  0.7000230E-01 -0.2455517E+01  0.5416343E-01  0.4434688E-01
 -0.4414850E-06  0.1010000E+02  0.0000000E+00  0.8522733E-01 -0.2233965E+01  0.5246738E-01  0.6716303E-01
 -0.9899740E+00  0.1005140E+02  0.0000000E+00  0.1037549E+00 -0.2091970E+01  0.5165941E-01  0.8997993E-01
 -0.1970410E+01  0.9905930E+01  0.0000000E+00  0.1240349E+00 -0.2000074E+01  0.5162510E-01  0.1127808E+00
 -0.2931880E+01  0.9665100E+01  0.0000000E+00  0.1448656E+00 -0.1941179E+01  0.5243733E-01  0.1350421E+00
 -0.3865100E+01  0.9331180E+01  0.0000000E+00  0.1655480E+00 -0.1902305E+01  0.5388090E-01  0.1565343E+00
 -0.4761110E+01  0.8907400E+01  0.0000000E+00  0.1855087E+00 -0.1877444E+01  0.5599850E-01  0.1768549E+00
 -0.5611260E+01  0.8397840E+01  0.0000000E+00  0.2049714E+00 -0.1860984E+01  0.5864881E-01  0.1964016E+00
 -0.6407370E+01  0.7807410E+01  0.0000000E+00  0.2231594E+00 -0.1850948E+01  0.6170384E-01  0.2144592E+00
 -0.7141780E+01  0.7141780E+01  0.0000000E+00  0.2401135E+00 -0.1844519E+01  0.6490676E-01  0.2311744E+00
 -0.7807410E+01  0.6407370E+01  0.0000000E+00  0.2551033E+00 -0.1841409E+01  0.6819473E-01  0.2458194E+00
 -0.8397840E+01  0.5611260E+01  0.0000000E+00  0.2688257E+00 -0.1839957E+01  0.7148685E-01  0.2591464E+00
 -0.8907410E+01  0.4761110E+01  0.0000000E+00  0.2804722E+00 -0.1839814E+01  0.7454515E-01  0.2703843E+00
 -0.9331180E+01  0.3865100E+01  0.0000000E+00  0.2904380E+00 -0.1839919E+01  0.7722331E-01  0.2799835E+00
 -0.9665100E+01  0.2931880E+01  0.0000000E+00  0.2977878E+00 -0.1840678E+01  0.7939537E-01  0.2870086E+00
 -0.9905930E+01  0.1970410E+01  0.0000000E+00  0.3034656E+00 -0.1841293E+01  0.8108901E-01  0.2924311E+00
 -0.1005140E+02  0.9899730E+00  0.0000000E+00  0.3066870E+00 -0.1841799E+01  0.8209930E-01  0.2954939E+00
 -0.1010000E+02 -0.8829700E-06  0.0000000E+00  0.3081048E+00 -0.1841783E+01  0.8247425E-01  0.2968612E+00
 -0.1005140E+02 -0.9899740E+00  0.0000000E+00  0.3066873E+00 -0.1841799E+01  0.8209939E-01  0.2954941E+00
 -0.9905930E+01 -0.1970410E+01  0.0000000E+00  0.3034651E+00 -0.1841293E+01  0.8108902E-01  0.2924305E+00
 -0.9665100E+01 -0.2931880E+01  0.0000000E+00  0.2977873E+00 -0.1840678E+01  0.7939526E-01  0.2870082E+00
 -0.9331180E+01 -0.3865100E+01  0.0000000E+00  0.2904376E+00 -0.1839919E+01  0.7722322E-01  0.2799832E+00
 -0.8907400E+01 -0.4761110E+01  0.0000000E+00  0.2804720E+00 -0.1839814E+01  0.7454512E-01  0.2703842E+00
 -0.8397840E+01 -0.5611260E+01  0.0000000E+00  0.2688254E+00 -0.1839957E+01  0.7148675E-01  0.2591462E+00
 -0.7807400E+01 -0.6407370E+01  0.0000000E+00  0.2551032E+00 -0.1841409E+01  0.6819461E-01  0.2458193E+00
 -0.7141780E+01 -0.7141780E+01  0.0000000E+00  0.2401130E+00 -0.1844519E+01  0.6490662E-01  0.2311740E+00
 -0.6407370E+01 -0.7807410E+01  0.0000000E+00  0.2231590E+00 -0.1850948E+01  0.6170371E-01  0.2144588E+00
 -0.5611260E+01 -0.8397850E+01  0.0000000E+00  0.2049707E+00 -0.1860984E+01  0.5864863E-01  0.1964009E+00
 -0.4761110E+01 -0.8907410E+01  0.0000000E+00  0.1855081E+00 -0.1877444E+01  0.5599834E-01  0.1768543E+00
 -0.3865100E+01 -0.9331190E+01  0.0000000E+00  0.1655473E+00 -0.1902305E+01  0.5388070E-01  0.1565336E+00
 -0.2931870E+01 -0.9665100E+01  0.0000000E+00  0.1448653E+00 -0.1941179E+01  0.5243719E-01  0.1350418E+00
 -0.1970410E+01 -0.9905930E+01  0.0000000E+00  0.1240348E+00 -0.2000075E+01  0.5162510E-01  0.1127807E+00
 -0.9899710E+00 -0.1005140E+02  0.0000000E+00  0.1037548E+00 -0.2091970E+01  0.5165930E-01  0.8997983E-01
  0.1204410E-06 -0.1010000E+02  0.0000000E+00  0.8522718E-01 -0.2233964E+01  0.5246725E-01  0.6716294E-01
  0.9899760E+00 -0.1005140E+02  0.0000000E+00  0.7000222E-01 -0.2455515E+01  0.5416330E-01  0.4434690E-01
  0.1970410E+01 -0.9905930E+01  0.0000000E+00  0.6058121E-01 -0.2777944E+01  0.5661951E-01  0.2154794E-01
  0.2931880E+01 -0.9665100E+01  0.0000000E+00  0.5987594E-01  0.3129719E+01  0.5987172E-01 -0.7109163E-03
  0.3865100E+01 -0.9331180E+01  0.0000000E+00  0.6743995E-01  0.2806155E+01  0.6368128E-01 -0.2220003E-01
  0.4761110E+01 -0.8907410E+01  0.0000000E+00  0.8024770E-01  0.2583222E+01  0.6805962E-01 -0.4251566E-01
  0.5611260E+01 -0.8397840E+01  0.0000000E+00  0.9571560E-01  0.2436172E+01  0.7287200E-01 -0.6205763E-01
  0.6407370E+01 -0.7807410E+01  0.0000000E+00  0.1117721E+00  0.2342496E+01  0.7794473E-01 -0.8011001E-01
  0.7141780E+01 -0.7141780E+01  0.0000000E+00  0.1275373E+00  0.2279583E+01  0.8301573E-01 -0.9682023E-01
  0.7807410E+01 -0.6407370E+01  0.0000000E+00  0.1419968E+00  0.2238989E+01  0.8797679E-01 -0.1114593E+00
  0.8397840E+01 -0.5611260E+01  0.0000000E+00  0.1554903E+00  0.2210115E+01  0.9277318E-01 -0.1247813E+00
  0.8907410E+01 -0.4761110E+01  0.0000000E+00  0.1671292E+00  0.2190885E+01  0.9712005E-01 -0.1360143E+00
  0.9331180E+01 -0.3865100E+01  0.0000000E+00  0.1771433E+00  0.2176697E+01  0.1008835E+00 -0.1456099E+00
  0.9665100E+01 -0.2931870E+01  0.0000000E+00  0.1846312E+00  0.2168410E+01  0.1038866E+00 -0.1526310E+00
  0.9905930E+01 -0.1970410E+01  0.0000000E+00  0.1904158E+00  0.2162428E+01  0.1061979E+00 -0.1580512E+00
  0.1005140E+02 -0.9899690E+00  0.0000000E+00  0.1937234E+00  0.2159500E+01  0.1075713E+00 -0.1611122E+00
  0.1010000E+02  0.0000000E+00 -0.2568960E-01  0.1950547E+00  0.2157688E+01  0.1080166E+00 -0.1624154E+00
  0.1005140E+02  0.9899730E+00 -0.2568960E-01  0.1936175E+00  0.2159427E+01  0.1075008E+00 -0.1610320E+00
  0.9905930E+01  0.1970410E+01 -0.2568960E-01  0.1901801E+00  0.2162657E+01  0.1061027E+00 -0.1578312E+00
  0.9665100E+01  0.2931880E+01 -0.2568960E-01  0.1845295E+00  0.2168335E+01  0.1038180E+00 -0.1525548E+00
  0.9331180E+01  0.3865100E+01 -0.2568960E-01  0.1770612E+00  0.2176576E+01  0.1008192E+00 -0.1455546E+00
  0.8907400E+01  0.4761110E+01 -0.2568960E-01  0.1670385E+00  0.2190799E+01  0.9705555E-01 -0.1359488E+00
  0.8397840E+01  0.5611260E+01 -0.2568960E-01  0.1553009E+00  0.2210424E+01  0.9269854E-01 -0.1246007E+00
  0.7807410E+01  0.6407370E+01 -0.2568960E-01  0.1419183E+00  0.2238887E+01  0.8791669E-01 -0.1114067E+00
  0.7141780E+01  0.7141780E+01 -0.2568960E-01  0.1274770E+00  0.2279402E+01  0.8295891E-01 -0.9678951E-01
  0.6407370E+01  0.7807410E+01 -0.2568960E-01  0.1117107E+00  0.2342357E+01  0.7789084E-01 -0.8007678E-01
  0.5611260E+01  0.8397840E+01 -0.2568960E-01  0.9561262E-01  0.2436716E+01  0.7282733E-01 -0.6195121E-01
  0.4761110E+01  0.8907410E+01 -0.2568960E-01  0.8019865E-01  0.2583043E+01  0.6801043E-01 -0.4250181E-01
  0.3865100E+01  0.9331180E+01 -0.2568960E-01  0.6739596E-01  0.2805844E+01  0.6363282E-01 -0.2220539E-01
  0.2931870E+01  0.9665100E+01 -0.2568960E-01  0.5983185E-01  0.3129520E+01  0.5982749E-01 -0.7223083E-03
  0.1970410E+01  0.9905930E+01 -0.2568960E-01  0.6056346E-01 -0.2777716E+01  0.5659800E-01  0.2155454E-01
  0.9899730E+00  0.1005140E+02 -0.2568960E-01  0.6994866E-01 -0.2455522E+01  0.5412215E-01  0.4431262E-01
 -0.4414850E-06  0.1010000E+02 -0.2568960E-01  0.8516280E-01 -0.2233914E+01  0.5242425E-01  0.6711482E-01
 -0.9899740E+00  0.1005140E+02 -0.2568960E-01  0.1036813E+00 -0.2091937E+01  0.5161980E-01  0.8991776E-01
 -0.1970410E+01  0.9905930E+01 -0.2568960E-01  0.1239340E+00 -0.2000296E+01  0.5160809E-01  0.1126776E+00
 -0.2931880E+01  0.9665100E+01 -0.2568960E-01  0.1447720E+00 -0.1941137E+01  0.5239778E-01  0.1349570E+00
 -0.3865100E+01  0.9331180E+01 -0.2568960E-01  0.1654478E+00 -0.1902241E+01  0.5383829E-01  0.1564430E+00
 -0.4761110E+01  0.8907400E+01 -0.2568960E-01  0.1853905E+00 -0.1877411E+01  0.5595700E-01  0.1767440E+00
 -0.5611260E+01  0.8397840E+01 -0.2568960E-01  0.2047675E+00 -0.1861119E+01  0.5861702E-01  0.1961983E+00
 -0.6407370E+01  0.7807410E+01 -0.2568960E-01  0.2230223E+00 -0.1850921E+01  0.6166022E-01  0.2143291E+00
 -0.7141780E+01  0.7141780E+01 -0.2568960E-01  0.2399780E+00 -0.1844479E+01  0.6486096E-01  0.2310465E+00
 -0.7807410E+01  0.6407370E+01 -0.2568960E-01  0.2549465E+00 -0.1841387E+01  0.6814732E-01  0.2456698E+00
 -0.8397840E+01  0.5611260E+01 -0.2568960E-01  0.2685433E+00 -0.1840034E+01  0.7143172E-01  0.2588687E+00
 -0.8907410E+01  0.4761110E+01 -0.2568960E-01  0.2803025E+00 -0.1839796E+01  0.7449511E-01  0.2702221E+00
 -0.9331180E+01  0.3865100E+01 -0.2568960E-01  0.2902782E+00 -0.1839892E+01  0.7717334E-01  0.2798315E+00
 -0.9665100E+01  0.2931880E+01 -0.2568960E-01  0.2976073E+00 -0.1840662E+01  0.7934259E-01  0.2868359E+00
 -0.9905930E+01  0.1970410E+01 -0.2568960E-01  0.3031416E+00 -0.1841342E+01  0.8101688E-01  0.2921148E+00
 -0.1005140E+02  0.9899730E+00 -0.2568960E-01  0.3065020E+00 -0.1841784E+01  0.8204538E-01  0.2953168E+00
 -0.1010000E+02 -0.8829700E-06 -0.2568960E-01  0.3079358E+00 -0.1841761E+01  0.8242247E-01  0.2967002E+00
 -0.1005140E+02 -0.9899740E+00 -0.2568960E-01  0.3065018E+00 -0.1841784E+01  0.8204541E-01  0.2953167E+00
 -0.9905930E+01 -0.1970410E+01 -0.2568960E-01  0.3031414E+00 -0.1841343E+01  0.8101690E-01  0.2921146E+00
 -0.9665100E+01 -0.2931880E+01 -0.2568960E-01  0.2976071E+00 -0.1840662E+01  0.7934254E-01  0.2868358E+00
 -0.9331180E+01 -0.3865100E+01 -0.2568960E-01  0.2902779E+00 -0.1839892E+01  0.7717332E-01  0.2798313E+00
 -0.8907400E+01 -0.4761110E+01 -0.2568960E-01  0.2803025E+00 -0.1839795E+01  0.7449508E-01  0.2702221E+00
 -0.8397840E+01 -0.5611260E+01 -0.2568960E-01  0.2685429E+00 -0.1840034E+01  0.7143158E-01  0.2588684E+00
 -0.7807400E+01 -0.6407370E+01 -0.2568960E-01  0.2549464E+00 -0.1841387E+01  0.6814728E-01  0.2456697E+00
 -0.7141780E+01 -0.7141780E+01 -0.2568960E-01  0.2399776E+00 -0.1844479E+01  0.6486081E-01  0.2310461E+00
 -0.6407370E+01 -0.7807410E+01 -0.2568960E-01  0.2230219E+00 -0.1850921E+01  0.6166014E-01  0.2143287E+00
 -0.5611260E+01 -0.8397850E+01 -0.2568960E-01  0.2047670E+00 -0.1861119E+01  0.5861692E-01  0.1961978E+00
 -0.4761110E+01 -0.8907410E+01 -0.2568960E-01  0.1853901E+00 -0.1877411E+01  0.5595689E-01  0.1767436E+00
 -0.3865100E+01 -0.9331190E+01 -0.2568960E-01  0.1654473E+00 -0.1902241E+01  0.5383815E-01  0.1564425E+00
 -0.2931870E+01 -0.9665100E+01 -0.2568960E-01  0.1447716E+00 -0.1941137E+01  0.5239759E-01  0.1349567E+00
 -0.1970410E+01 -0.9905930E+01 -0.2568960E-01  0.1239337E+00 -0.2000296E+01  0.5160801E-01  0.1126773E+00
 -0.9899710E+00 -0.1005140E+02 -0.2568960E-01  0.1036811E+00 -0.2091937E+01  0.5161968E-01  0.8991765E-01
  0.1204410E-06 -0.1010000E+02 -0.2568960E-01  0.8516262E-01 -0.2233913E+01  0.5242409E-01  0.6711473E-01
  0.9899760E+00 -0.1005140E+02 -0.2568960E-01  0.6994876E-01 -0.2455519E+01  0.5412210E-01  0.4431284E-01
  0.1970410E+01 -0.9905930E+01 -0.2568960E-01  0.6056345E-01 -0.2777712E+01  0.5659793E-01  0.2155473E-01
  0.2931880E+01 -0.9665100E+01 -0.2568960E-01  0.5983174E-01  0.3129522E+01  0.5982738E-01 -0.7221679E-03
  0.3865100E+01 -0.9331180E+01 -0.2568960E-01  0.6739581E-01  0.2805848E+01  0.6363278E-01 -0.2220507E-01
  0.4761110E+01 -0.8907410E+01 -0.2568960E-01  0.8019824E-01  0.2583048E+01  0.6801029E-01 -0.4250129E-01
  0.5611260E+01 -0.8397840E+01 -0.2568960E-01  0.9561218E-01  0.2436718E+01  0.7282713E-01 -0.6195078E-01
  0.6407370E+01 -0.7807410E+01 -0.2568960E-01  0.1117102E+00  0.2342359E+01  0.7789060E-01 -0.8007635E-01
  0.7141780E+01 -0.7141780E+01 -0.2568960E-01  0.1274763E+00  0.2279404E+01  0.8295873E-01 -0.9678873E-01
  0.7807410E+01 -0.6407370E+01 -0.2568960E-01  0.1419179E+00  0.2238887E+01  0.8791650E-01 -0.1114063E+00
  0.8397840E+01 -0.5611260E+01 -0.2568960E-01  0.1553004E+00  0.2210425E+01  0.9269845E-01 -0.1246002E+00
  0.8907410E+01 -0.4761110E+01 -0.2568960E-01  0.1670381E+00  0.2190799E+01  0.9705541E-01 -0.1359484E+00
  0.9331180E+01 -0.3865100E+01 -0.2568960E-01  0.1770607E+00  0.2176577E+01  0.1008190E+00 -0.1455542E+00
  0.9665100E+01 -0.2931870E+01 -0.2568960E-01  0.1845295E+00  0.2168335E+01  0.1038180E+00 -0.1525548E+00
  0.9905930E+01 -0.1970410E+01 -0.2568960E-01  0.1901800E+00  0.2162658E+01  0.1061028E+00 -0.1578310E+00
  0.1005140E+02 -0.9899690E+00 -0.2568960E-01  0.1936172E+00  0.2159427E+01  0.1075008E+00 -0.1610317E+00
  0.1010000E+02  0.0000000E+00 -0.1027320E+00  0.1947324E+00  0.2157538E+01  0.1078137E+00 -0.1621632E+00
  0.1005140E+02  0.9899730E+00 -0.1027320E+00  0.1932469E+00  0.2159383E+01  0.1072880E+00 -0.1607285E+00
  0.9905930E+01  0.1970410E+01 -0.1027320E+00  0.1897397E+00  0.2162789E+01  0.1058777E+00 -0.1574518E+00
  0.9665100E+01  0.2931880E+01 -0.1027320E+00  0.1841751E+00  0.2168283E+01  0.1036106E+00 -0.1522672E+00
  0.9331180E+01  0.3865100E+01 -0.1027320E+00  0.1767685E+00  0.2176393E+01  0.1006259E+00 -0.1453325E+00
  0.8907400E+01  0.4761110E+01 -0.1027320E+00  0.1667204E+00  0.2190729E+01  0.9686127E-01 -0.1356967E+00
  0.8397840E+01  0.5611260E+01 -0.1027320E+00  0.1549422E+00  0.2210580E+01  0.9250391E-01 -0.1242984E+00
  0.7807410E+01  0.6407370E+01 -0.1027320E+00  0.1416438E+00  0.2238794E+01  0.8773635E-01 -0.1111994E+00
  0.7141780E+01  0.7141780E+01 -0.1027320E+00  0.1272624E+00  0.2279090E+01  0.8278917E-01 -0.9665237E-01
  0.6407370E+01  0.7807410E+01 -0.1027320E+00  0.1114971E+00  0.2342204E+01  0.7772963E-01 -0.7993565E-01
  0.5611260E+01  0.8397840E+01 -0.1027320E+00  0.9539772E-01  0.2436947E+01  0.7267790E-01 -0.6179521E-01
  0.4761110E+01  0.8907410E+01 -0.1027320E+00  0.8003652E-01  0.2582852E+01  0.6786484E-01 -0.4242887E-01
  0.3865100E+01  0.9331180E+01 -0.1027320E+00  0.6725804E-01  0.2805259E+01  0.6348964E-01 -0.2219706E-01
  0.2931870E+01  0.9665100E+01 -0.1027320E+00  0.5970237E-01  0.3129241E+01  0.5969782E-01 -0.7374049E-03
  0.1970410E+01  0.9905930E+01 -0.1027320E+00  0.6044488E-01 -0.2777646E+01  0.5648570E-01  0.2151625E-01
  0.9899730E+00  0.1005140E+02 -0.1027320E+00  0.6979477E-01 -0.2455498E+01  0.5400205E-01  0.4421638E-01
 -0.4414850E-06  0.1010000E+02 -0.1027320E+00  0.8497134E-01 -0.2233792E+01  0.5229821E-01  0.6697033E-01
 -0.9899740E+00  0.1005140E+02 -0.1027320E+00  0.1034573E+00 -0.2091902E+01  0.5150509E-01  0.8972539E-01
 -0.1970410E+01  0.9905930E+01 -0.1027320E+00  0.1236641E+00 -0.2000395E+01  0.5150681E-01  0.1124271E+00
 -0.2931880E+01  0.9665100E+01 -0.1027320E+00  0.1444755E+00 -0.1941084E+01  0.5228332E-01  0.1346834E+00
 -0.3865100E+01  0.9331180E+01 -0.1027320E+00  0.1651265E+00 -0.1902117E+01  0.5371434E-01  0.1561459E+00
 -0.4761110E+01  0.8907400E+01 -0.1027320E+00  0.1850095E+00 -0.1877380E+01  0.5583645E-01  0.1763826E+00
 -0.5611260E+01  0.8397840E+01 -0.1027320E+00  0.2043074E+00 -0.1861190E+01  0.5849928E-01  0.1957533E+00
 -0.6407370E+01  0.7807410E+01 -0.1027320E+00  0.2225740E+00 -0.1850904E+01  0.6153260E-01  0.2138993E+00
 -0.7141780E+01  0.7141780E+01 -0.1027320E+00  0.2395322E+00 -0.1844420E+01  0.6472682E-01  0.2306211E+00
 -0.7807410E+01  0.6407370E+01 -0.1027320E+00  0.2544308E+00 -0.1841381E+01  0.6800797E-01  0.2451733E+00
 -0.8397840E+01  0.5611260E+01 -0.1027320E+00  0.2679348E+00 -0.1840091E+01  0.7128439E-01  0.2582781E+00
 -0.8907410E+01  0.4761110E+01 -0.1027320E+00  0.2797418E+00 -0.1839800E+01  0.7434741E-01  0.2696811E+00
 -0.9331180E+01  0.3865100E+01 -0.1027320E+00  0.2897466E+00 -0.1839872E+01  0.7702642E-01  0.2793207E+00
 -0.9665100E+01  0.2931880E+01 -0.1027320E+00  0.2970099E+00 -0.1840671E+01  0.7918593E-01  0.2862594E+00
 -0.9905930E+01  0.1970410E+01 -0.1027320E+00  0.3024520E+00 -0.1841393E+01  0.8084753E-01  0.2914462E+00
 -0.1005140E+02  0.9899730E+00 -0.1027320E+00  0.3058883E+00 -0.1841797E+01  0.8188513E-01  0.2947244E+00
 -0.1010000E+02 -0.8829700E-06 -0.1027320E+00  0.3073743E+00 -0.1841754E+01  0.8226998E-01  0.2961598E+00
 -0.1005140E+02 -0.9899740E+00 -0.1027320E+00  0.3058885E+00 -0.1841797E+01  0.8188514E-01  0.2947246E+00
 -0.9905930E+01 -0.1970410E+01 -0.1027320E+00  0.3024520E+00 -0.1841394E+01  0.8084757E-01  0.2914462E+00
 -0.9665100E+01 -0.2931880E+01 -0.1027320E+00  0.2970096E+00 -0.1840670E+01  0.7918575E-01  0.2862592E+00
 -0.9331180E+01 -0.3865100E+01 -0.1027320E+00  0.2897465E+00 -0.1839872E+01  0.7702646E-01  0.2793205E+00
 -0.8907400E+01 -0.4761110E+01 -0.1027320E+00  0.2797413E+00 -0.1839801E+01  0.7434734E-01  0.2696806E+00
 -0.8397840E+01 -0.5611260E+01 -0.1027320E+00  0.2679344E+00 -0.1840091E+01  0.7128431E-01  0.2582777E+00
 -0.7807400E+01 -0.6407370E+01 -0.1027320E+00  0.2544309E+00 -0.1841380E+01  0.6800788E-01  0.2451734E+00
 -0.7141780E+01 -0.7141780E+01 -0.1027320E+00  0.2395315E+00 -0.1844420E+01  0.6472670E-01  0.2306205E+00
 -0.6407370E+01 -0.7807410E+01 -0.1027320E+00  0.2225736E+00 -0.1850904E+01  0.6153243E-01  0.2138989E+00
 -0.5611260E+01 -0.8397850E+01 -0.1027320E+00  0.2043067E+00 -0.1861191E+01  0.5849917E-01  0.1957526E+00
 -0.4761110E+01 -0.8907410E+01 -0.1027320E+00  0.1850089E+00 -0.1877380E+01  0.5583631E-01  0.1763819E+00
 -0.3865100E+01 -0.9331190E+01 -0.1027320E+00  0.1651262E+00 -0.1902116E+01  0.5371414E-01  0.1561456E+00
 -0.2931870E+01 -0.9665100E+01 -0.1027320E+00  0.1444752E+00 -0.1941084E+01  0.5228323E-01  0.1346832E+00
 -0.1970410E+01 -0.9905930E+01 -0.1027320E+00  0.1236639E+00 -0.2000394E+01  0.5150666E-01  0.1124270E+00
 -0.9899710E+00 -0.1005140E+02 -0.1027320E+00  0.1034572E+00 -0.2091901E+01  0.5150494E-01  0.8972535E-01
  0.1204410E-06 -0.1010000E+02 -0.1027320E+00  0.8497139E-01 -0.2233789E+01  0.5229806E-01  0.6697052E-01
  0.9899760E+00 -0.1005140E+02 -0.1027320E+00  0.6979466E-01 -0.2455498E+01  0.5400197E-01  0.4421631E-01
  0.1970410E+01 -0.9905930E+01 -0.1027320E+00  0.6044472E-01 -0.2777643E+01  0.5648548E-01  0.2151640E-01
  0.2931880E+01 -0.9665100E+01 -0.1027320E+00  0.5970237E-01  0.3129241E+01  0.5969782E-01 -0.7373933E-03
  0.3865100E+01 -0.9331180E+01 -0.1027320E+00  0.6725779E-01  0.2805262E+01  0.6348948E-01 -0.2219677E-01
  0.4761110E+01 -0.8907410E+01 -0.1027320E+00  0.8003611E-01  0.2582855E+01  0.6786463E-01 -0.4242841E-01
  0.5611260E+01 -0.8397840E+01 -0.1027320E+00  0.9539729E-01  0.2436951E+01  0.7267783E-01 -0.6179464E-01
  0.6407370E+01 -0.7807410E+01 -0.1027320E+00  0.1114968E+00  0.2342206E+01  0.7772959E-01 -0.7993526E-01
  0.7141780E+01 -0.7141780E+01 -0.1027320E+00  0.1272620E+00  0.2279092E+01  0.8278904E-01 -0.9665184E-01
  0.7807410E+01 -0.6407370E+01 -0.1027320E+00  0.1416433E+00  0.2238796E+01  0.8773625E-01 -0.1111988E+00
  0.8397840E+01 -0.5611260E+01 -0.1027320E+00  0.1549418E+00  0.2210581E+01  0.9250383E-01 -0.1242981E+00
  0.8907410E+01 -0.4761110E+01 -0.1027320E+00  0.1667199E+00  0.2190730E+01  0.9686110E-01 -0.1356961E+00
  0.9331180E+01 -0.3865100E+01 -0.1027320E+00  0.1767681E+00  0.2176393E+01  0.1006257E+00 -0.1453321E+00
  0.9665100E+01 -0.2931870E+01 -0.1027320E+00  0.1841751E+00  0.2168283E+01  0.1036107E+00 -0.1522672E+00
  0.9905930E+01 -0.1970410E+01 -0.1027320E+00  0.1897395E+00  0.2162788E+01  0.1058775E+00 -0.1574516E+00
  0.1005140E+02 -0.9899690E+00 -0.1027320E+00  0.1932469E+00  0.2159383E+01  0.1072880E+00 -0.1607285E+00
  0.1010000E+02  0.0000000E+00 -0.2310450E+00  0.1941296E+00  0.2157423E+01  0.1074615E+00 -0.1616736E+00
  0.1005140E+02  0.9899730E+00 -0.2310450E+00  0.1926204E+00  0.2159326E+01  0.1069311E+00 -0.1602135E+00
  0.9905930E+01  0.1970410E+01 -0.2310450E+00  0.1891474E+00  0.2162678E+01  0.1055299E+00 -0.1569719E+00
  0.9665100E+01  0.2931880E+01 -0.2310450E+00  0.1835769E+00  0.2168219E+01  0.1032644E+00 -0.1517793E+00
  0.9331180E+01  0.3865100E+01 -0.2310450E+00  0.1762216E+00  0.2176253E+01  0.1002943E+00 -0.1448968E+00
  0.8907400E+01  0.4761110E+01 -0.2310450E+00  0.1661824E+00  0.2190647E+01  0.9653762E-01 -0.1352667E+00
  0.8397840E+01  0.5611260E+01 -0.2310450E+00  0.1544588E+00  0.2210419E+01  0.9219537E-01 -0.1239255E+00
  0.7807410E+01  0.6407370E+01 -0.2310450E+00  0.1411827E+00  0.2238690E+01  0.8743919E-01 -0.1108464E+00
  0.7141780E+01  0.7141780E+01 -0.2310450E+00  0.1268676E+00  0.2278850E+01  0.8250920E-01 -0.9637233E-01
  0.6407370E+01  0.7807410E+01 -0.2310450E+00  0.1111387E+00  0.2342031E+01  0.7746609E-01 -0.7969207E-01
  0.5611260E+01  0.8397840E+01 -0.2310450E+00  0.9509565E-01  0.2436623E+01  0.7242783E-01 -0.6162298E-01
  0.4761110E+01  0.8907410E+01 -0.2310450E+00  0.7977076E-01  0.2582632E+01  0.6763020E-01 -0.4230283E-01
  0.3865100E+01  0.9331180E+01 -0.2310450E+00  0.6703282E-01  0.2804762E+01  0.6326604E-01 -0.2215418E-01
  0.2931870E+01  0.9665100E+01 -0.2310450E+00  0.5949567E-01  0.3128867E+01  0.5949085E-01 -0.7570916E-03
  0.1970410E+01  0.9905930E+01 -0.2310450E+00  0.6022293E-01 -0.2777924E+01  0.5628425E-01  0.2142161E-01
  0.9899730E+00  0.1005140E+02 -0.2310450E+00  0.6954649E-01 -0.2455555E+01  0.5381243E-01  0.4405606E-01
 -0.4414850E-06  0.1010000E+02 -0.2310450E+00  0.8466583E-01 -0.2233773E+01  0.5210889E-01  0.6673054E-01
 -0.9899740E+00  0.1005140E+02 -0.2310450E+00  0.1030905E+00 -0.2091922E+01  0.5132431E-01  0.8940618E-01
 -0.1970410E+01  0.9905930E+01 -0.2310450E+00  0.1232373E+00 -0.2000336E+01  0.5132246E-01  0.1120421E+00
 -0.2931880E+01  0.9665100E+01 -0.2310450E+00  0.1439812E+00 -0.1941064E+01  0.5210175E-01  0.1342237E+00
 -0.3865100E+01  0.9331180E+01 -0.2310450E+00  0.1645706E+00 -0.1902055E+01  0.5352390E-01  0.1556235E+00
 -0.4761110E+01  0.8907400E+01 -0.2310450E+00  0.1843739E+00 -0.1877374E+01  0.5564359E-01  0.1757769E+00
 -0.5611260E+01  0.8397840E+01 -0.2310450E+00  0.2036255E+00 -0.1861158E+01  0.5829768E-01  0.1951018E+00
 -0.6407370E+01  0.7807410E+01 -0.2310450E+00  0.2218214E+00 -0.1850905E+01  0.6132479E-01  0.2131760E+00
 -0.7141780E+01  0.7141780E+01 -0.2310450E+00  0.2387415E+00 -0.1844398E+01  0.6450822E-01  0.2298613E+00
 -0.7807410E+01  0.6407370E+01 -0.2310450E+00  0.2535676E+00 -0.1841389E+01  0.6777921E-01  0.2443410E+00
 -0.8397840E+01  0.5611260E+01 -0.2310450E+00  0.2670503E+00 -0.1840087E+01  0.7104824E-01  0.2574258E+00
 -0.8907410E+01  0.4761110E+01 -0.2310450E+00  0.2787992E+00 -0.1839818E+01  0.7410149E-01  0.2687712E+00
 -0.9331180E+01  0.3865100E+01 -0.2310450E+00  0.2887974E+00 -0.1839876E+01  0.7677512E-01  0.2784053E+00
 -0.9665100E+01  0.2931880E+01 -0.2310450E+00  0.2960069E+00 -0.1840691E+01  0.7892422E-01  0.2852912E+00
 -0.9905930E+01  0.1970410E+01 -0.2310450E+00  0.3014575E+00 -0.1841406E+01  0.8058520E-01  0.2904869E+00
 -0.1005140E+02  0.9899730E+00 -0.2310450E+00  0.3048583E+00 -0.1841820E+01  0.8161611E-01  0.2937301E+00
 -0.1010000E+02 -0.8829700E-06 -0.2310450E+00  0.3063690E+00 -0.1841766E+01  0.8200461E-01  0.2951902E+00
 -0.1005140E+02 -0.9899740E+00 -0.2310450E+00  0.3048582E+00 -0.1841821E+01  0.8161618E-01  0.2937301E+00
 -0.9905930E+01 -0.1970410E+01 -0.2310450E+00  0.3014573E+00 -0.1841405E+01  0.8058505E-01  0.2904868E+00
 -0.9665100E+01 -0.2931880E+01 -0.2310450E+00  0.2960071E+00 -0.1840690E+01  0.7892421E-01  0.2852913E+00
 -0.9331180E+01 -0.3865100E+01 -0.2310450E+00  0.2887971E+00 -0.1839876E+01  0.7677507E-01  0.2784051E+00
 -0.8907400E+01 -0.4761110E+01 -0.2310450E+00  0.2787992E+00 -0.1839817E+01  0.7410143E-01  0.2687712E+00
 -0.8397840E+01 -0.5611260E+01 -0.2310450E+00  0.2670497E+00 -0.1840088E+01  0.7104814E-01  0.2574251E+00
 -0.7807400E+01 -0.6407370E+01 -0.2310450E+00  0.2535673E+00 -0.1841389E+01  0.6777909E-01  0.2443407E+00
 -0.7141780E+01 -0.7141780E+01 -0.2310450E+00  0.2387409E+00 -0.1844398E+01  0.6450812E-01  0.2298607E+00
 -0.6407370E+01 -0.7807410E+01 -0.2310450E+00  0.2218213E+00 -0.1850905E+01  0.6132473E-01  0.2131759E+00
 -0.5611260E+01 -0.8397850E+01 -0.2310450E+00  0.2036247E+00 -0.1861158E+01  0.5829751E-01  0.1951010E+00
 -0.4761110E+01 -0.8907410E+01 -0.2310450E+00  0.1843734E+00 -0.1877374E+01  0.5564350E-01  0.1757765E+00
 -0.3865100E+01 -0.9331190E+01 -0.2310450E+00  0.1645700E+00 -0.1902056E+01  0.5352383E-01  0.1556229E+00
 -0.2931870E+01 -0.9665100E+01 -0.2310450E+00  0.1439807E+00 -0.1941065E+01  0.5210166E-01  0.1342232E+00
 -0.1970410E+01 -0.9905930E+01 -0.2310450E+00  0.1232371E+00 -0.2000335E+01  0.5132230E-01  0.1120420E+00
 -0.9899710E+00 -0.1005140E+02 -0.2310450E+00  0.1030903E+00 -0.2091922E+01  0.5132419E-01  0.8940607E-01
  0.1204410E-06 -0.1010000E+02 -0.2310450E+00  0.8466589E-01 -0.2233770E+01  0.5210876E-01  0.6673073E-01
  0.9899760E+00 -0.1005140E+02 -0.2310450E+00  0.6954646E-01 -0.2455554E+01  0.5381238E-01  0.4405608E-01
  0.1970410E+01 -0.9905930E+01 -0.2310450E+00  0.6022283E-01 -0.2777921E+01  0.5628408E-01  0.2142173E-01
  0.2931880E+01 -0.9665100E+01 -0.2310450E+00  0.5949551E-01  0.3128869E+01  0.5949070E-01 -0.7570044E-03
  0.3865100E+01 -0.9331180E+01 -0.2310450E+00  0.6703257E-01  0.2804767E+01  0.6326590E-01 -0.2215379E-01
  0.4761110E+01 -0.8907410E+01 -0.2310450E+00  0.7977045E-01  0.2582634E+01  0.6763001E-01 -0.4230256E-01
  0.5611260E+01 -0.8397840E+01 -0.2310450E+00  0.9509530E-01  0.2436626E+01  0.7242776E-01 -0.6162252E-01
  0.6407370E+01 -0.7807410E+01 -0.2310450E+00  0.1111384E+00  0.2342033E+01  0.7746597E-01 -0.7969168E-01
  0.7141780E+01 -0.7141780E+01 -0.2310450E+00  0.1268671E+00  0.2278851E+01  0.8250894E-01 -0.9637191E-01
  0.7807410E+01 -0.6407370E+01 -0.2310450E+00  0.1411822E+00  0.2238692E+01  0.8743909E-01 -0.1108459E+00
  0.8397840E+01 -0.5611260E+01 -0.2310450E+00  0.1544585E+00  0.2210421E+01  0.9219535E-01 -0.1239252E+00
  0.8907410E+01 -0.4761110E+01 -0.2310450E+00  0.1661817E+00  0.2190648E+01  0.9653742E-01 -0.1352660E+00
  0.9331180E+01 -0.3865100E+01 -0.2310450E+00  0.1762212E+00  0.2176254E+01  0.1002942E+00 -0.1448964E+00
  0.9665100E+01 -0.2931870E+01 -0.2310450E+00  0.1835768E+00  0.2168220E+01  0.1032645E+00 -0.1517791E+00
  0.9905930E+01 -0.1970410E+01 -0.2310450E+00  0.1891471E+00  0.2162679E+01  0.1055298E+00 -0.1569717E+00
  0.1005140E+02 -0.9899690E+00 -0.2310450E+00  0.1926205E+00  0.2159326E+01  0.1069311E+00 -0.1602136E+00
  0.1010000E+02  0.0000000E+00 -0.4105000E+00  0.1932346E+00  0.2157240E+01  0.1069366E+00 -0.1609477E+00
  0.1005140E+02  0.9899730E+00 -0.4105000E+00  0.1917883E+00  0.2159016E+01  0.1064196E+00 -0.1595544E+00
  0.9905930E+01  0.1970410E+01 -0.4105000E+00  0.1882963E+00  0.2162439E+01  0.1050176E+00 -0.1562907E+00
  0.9665100E+01  0.2931880E+01 -0.4105000E+00  0.1827809E+00  0.2167892E+01  0.1027674E+00 -0.1511547E+00
  0.9331180E+01  0.3865100E+01 -0.4105000E+00  0.1754090E+00  0.2176052E+01  0.9980283E-01 -0.1442488E+00
  0.8907400E+01  0.4761110E+01 -0.4105000E+00  0.1654661E+00  0.2190278E+01  0.9607173E-01 -0.1347191E+00
  0.8397840E+01  0.5611260E+01 -0.4105000E+00  0.1537632E+00  0.2210123E+01  0.9174363E-01 -0.1233946E+00
  0.7807410E+01  0.6407370E+01 -0.4105000E+00  0.1405651E+00  0.2238258E+01  0.8700906E-01 -0.1103991E+00
  0.7141780E+01  0.7141780E+01 -0.4105000E+00  0.1262810E+00  0.2278571E+01  0.8210089E-01 -0.9594960E-01
  0.6407370E+01  0.7807410E+01 -0.4105000E+00  0.1106551E+00  0.2341447E+01  0.7708256E-01 -0.7939037E-01
  0.5611260E+01  0.8397840E+01 -0.4105000E+00  0.9465902E-01  0.2436142E+01  0.7206577E-01 -0.6137471E-01
  0.4761110E+01  0.8907410E+01 -0.4105000E+00  0.7939976E-01  0.2581920E+01  0.6728565E-01 -0.4215404E-01
  0.3865100E+01  0.9331180E+01 -0.4105000E+00  0.6670645E-01  0.2804300E+01  0.6294781E-01 -0.2207542E-01
  0.2931870E+01  0.9665100E+01 -0.4105000E+00  0.5919001E-01  0.3128047E+01  0.5918458E-01 -0.8017134E-03
  0.1970410E+01  0.9905930E+01 -0.4105000E+00  0.5990792E-01 -0.2778207E+01  0.5599586E-01  0.2129372E-01
  0.9899730E+00  0.1005140E+02 -0.4105000E+00  0.6918351E-01 -0.2455513E+01  0.5352972E-01  0.4382838E-01
 -0.4414850E-06  0.1010000E+02 -0.4105000E+00  0.8423986E-01 -0.2233722E+01  0.5184337E-01  0.6639744E-01
 -0.9899740E+00  0.1005140E+02 -0.4105000E+00  0.1025753E+00 -0.2091763E+01  0.5105362E-01  0.8896754E-01
 -0.1970410E+01  0.9905930E+01 -0.4105000E+00  0.1226378E+00 -0.2000202E+01  0.5105781E-01  0.1115039E+00
 -0.2931880E+01  0.9665100E+01 -0.4105000E+00  0.1433034E+00 -0.1940866E+01  0.5183003E-01  0.1336020E+00
 -0.3865100E+01  0.9331180E+01 -0.4105000E+00  0.1637778E+00 -0.1901969E+01  0.5325278E-01  0.1548784E+00
 -0.4761110E+01  0.8907400E+01 -0.4105000E+00  0.1835102E+00 -0.1877220E+01  0.5535598E-01  0.1749620E+00
 -0.5611260E+01  0.8397840E+01 -0.4105000E+00  0.2026649E+00 -0.1861057E+01  0.5800318E-01  0.1941873E+00
 -0.6407370E+01  0.7807410E+01 -0.4105000E+00  0.2208057E+00 -0.1850779E+01  0.6101729E-01  0.2122076E+00
 -0.7141780E+01  0.7141780E+01 -0.4105000E+00  0.2376061E+00 -0.1844335E+01  0.6418688E-01  0.2287722E+00