 VARIABLES="X" "Y" "Z" "abs(eta) (m)" "angle(phi) (rad)" "PRE1" "PRE2"
ZONE N=   3200 ,E =    3136 ,F=FEPOINT,ET=QUADRILATERAL
  0.1010000E+02  0.0000000E+00  0.0000000E+00  0.2347862E+00 -0.1828416E+01  0.5981871E-01  0.2270380E+00
  0.1005140E+02  0.9899730E+00  0.0000000E+00  0.2093636E+00 -0.1849678E+01  0.5763377E-01  0.2012746E+00
  0.9905930E+01  0.1970410E+01  0.0000000E+00  0.1827299E+00 -0.1884037E+01  0.5630695E-01  0.1738382E+00
  0.9665100E+01  0.2931880E+01  0.0000000E+00  0.1560758E+00 -0.1938218E+01  0.5606411E-01  0.1456588E+00
  0.9331180E+01  0.3865100E+01  0.0000000E+00  0.1305765E+00 -0.2023067E+01  0.5706308E-01  0.1174480E+00
  0.8907400E+01  0.4761110E+01  0.0000000E+00  0.1069164E+00 -0.2159064E+01  0.5933013E-01  0.8894411E-01
  0.8397840E+01  0.5611260E+01  0.0000000E+00  0.8685256E-01 -0.2379746E+01  0.6284329E-01  0.5995072E-01
  0.7807410E+01  0.6407370E+01  0.0000000E+00  0.7439578E-01 -0.2707525E+01  0.6749652E-01  0.3128822E-01
  0.7141780E+01  0.7141780E+01  0.0000000E+00  0.7319387E-01 -0.3088766E+01  0.7309177E-01  0.3864786E-02
  0.6407370E+01  0.7807410E+01  0.0000000E+00  0.8271005E-01  0.2867212E+01  0.7961612E-01 -0.2241038E-01
  0.5611260E+01  0.8397840E+01  0.0000000E+00  0.9933311E-01  0.2638557E+01  0.8702802E-01 -0.4788727E-01
  0.4761110E+01  0.8907410E+01  0.0000000E+00  0.1192170E+00  0.2492121E+01  0.9494487E-01 -0.7209834E-01
  0.3865100E+01  0.9331180E+01  0.0000000E+00  0.1394541E+00  0.2400782E+01  0.1029062E+00 -0.9411573E-01
  0.2931870E+01  0.9665100E+01  0.0000000E+00  0.1589312E+00  0.2342812E+01  0.1108674E+00 -0.1138751E+00
  0.1970410E+01  0.9905930E+01  0.0000000E+00  0.1774751E+00  0.2304182E+01  0.1187998E+00 -0.1318485E+00
  0.9899730E+00  0.1005140E+02  0.0000000E+00  0.1945404E+00  0.2277153E+01  0.1262697E+00 -0.1479931E+00
 -0.4414850E-06  0.1010000E+02  0.0000000E+00  0.2091017E+00  0.2258972E+01  0.1328066E+00 -0.1615113E+00
 -0.9899740E+00  0.1005140E+02  0.0000000E+00  0.2208598E+00  0.2247751E+01  0.1383515E+00 -0.1721566E+00
 -0.1970410E+01  0.9905930E+01  0.0000000E+00  0.2301843E+00  0.2240632E+01  0.1429115E+00 -0.1804470E+00
 -0.2931880E+01  0.9665100E+01  0.0000000E+00  0.2371796E+00  0.2235296E+01  0.1462605E+00 -0.1867138E+00
 -0.3865100E+01  0.9331180E+01  0.0000000E+00  0.2411720E+00  0.2232297E+01  0.1481523E+00 -0.1903019E+00
 -0.4761110E+01  0.8907400E+01  0.0000000E+00  0.2418183E+00  0.2232248E+01  0.1485401E+00 -0.1908192E+00
 -0.5611260E+01  0.8397840E+01  0.0000000E+00  0.2394881E+00  0.2234112E+01  0.1474607E+00 -0.1887059E+00
 -0.6407370E+01  0.7807410E+01  0.0000000E+00  0.2347171E+00  0.2236857E+01  0.1450302E+00 -0.1845491E+00
 -0.7141780E+01  0.7141780E+01  0.0000000E+00  0.2272131E+00  0.2242181E+01  0.1413426E+00 -0.1778990E+00
 -0.7807410E+01  0.6407370E+01  0.0000000E+00  0.2165857E+00  0.2251926E+01  0.1363778E+00 -0.1682572E+00
 -0.8397840E+01  0.5611260E+01  0.0000000E+00  0.2031384E+00  0.2266477E+01  0.1301930E+00 -0.1559326E+00
 -0.8907410E+01  0.4761110E+01  0.0000000E+00  0.1877408E+00  0.2286546E+01  0.1231923E+00 -0.1416696E+00
 -0.9331180E+01  0.3865100E+01  0.0000000E+00  0.1706160E+00  0.2316428E+01  0.1157521E+00 -0.1253446E+00
 -0.9665100E+01  0.2931880E+01  0.0000000E+00  0.1515695E+00  0.2362867E+01  0.1078886E+00 -0.1064583E+00
 -0.9905930E+01  0.1970410E+01  0.0000000E+00  0.1310736E+00  0.2434561E+01  0.9965434E-01 -0.8514278E-01
 -0.1005140E+02  0.9899730E+00  0.0000000E+00  0.1107280E+00  0.2544158E+01  0.9154786E-01 -0.6228713E-01
 -0.1010000E+02 -0.8829700E-06  0.0000000E+00  0.9227800E-01  0.2714897E+01  0.8400418E-01 -0.3819065E-01
 -0.1005140E+02 -0.9899740E+00  0.0000000E+00  0.7806249E-01  0.2981507E+01  0.7706435E-01 -0.1244340E-01
 -0.9905930E+01 -0.1970410E+01  0.0000000E+00  0.7232373E-01 -0.2932954E+01  0.7075530E-01  0.1498029E-01
 -0.9665100E+01 -0.2931880E+01  0.0000000E+00  0.7835348E-01 -0.2558401E+01  0.6540236E-01  0.4314857E-01
 -0.9331180E+01 -0.3865100E+01  0.0000000E+00  0.9403183E-01 -0.2280094E+01  0.6124300E-01  0.7135320E-01
 -0.8907400E+01 -0.4761110E+01  0.0000000E+00  0.1156336E+00 -0.2099312E+01  0.5830846E-01  0.9985621E-01
 -0.8397840E+01 -0.5611260E+01  0.0000000E+00  0.1407319E+00 -0.1984598E+01  0.5658728E-01  0.1288540E+00
 -0.7807400E+01 -0.6407370E+01  0.0000000E+00  0.1672017E+00 -0.1912713E+01  0.5606157E-01  0.1575230E+00
 -0.7141780E+01 -0.7141780E+01  0.0000000E+00  0.1934323E+00 -0.1867911E+01  0.5662971E-01  0.1849571E+00
 -0.6407370E+01 -0.7807410E+01  0.0000000E+00  0.2191442E+00 -0.1840062E+01  0.5829759E-01  0.2112477E+00
 -0.5611260E+01 -0.8397850E+01  0.0000000E+00  0.2444811E+00 -0.1823054E+01  0.6102032E-01  0.2367436E+00
 -0.4761110E+01 -0.8907410E+01  0.0000000E+00  0.2688215E+00 -0.1813008E+01  0.6447694E-01  0.2609746E+00
 -0.3865100E+01 -0.9331190E+01  0.0000000E+00  0.2911395E+00 -0.1807626E+01  0.6830775E-01  0.2830128E+00
 -0.2931870E+01 -0.9665100E+01  0.0000000E+00  0.3113534E+00 -0.1805799E+01  0.7249732E-01  0.3027954E+00
 -0.1970410E+01 -0.9905930E+01  0.0000000E+00  0.3299038E+00 -0.1806368E+01  0.7699915E-01  0.3207922E+00
 -0.9899710E+00 -0.1005140E+02  0.0000000E+00  0.3466517E+00 -0.1807850E+01  0.8140758E-01  0.3369573E+00
  0.1204410E-06 -0.1010000E+02  0.0000000E+00  0.3607344E+00 -0.1809630E+01  0.8533880E-01  0.3504948E+00
  0.9899760E+00 -0.1005140E+02  0.0000000E+00  0.3719074E+00 -0.1811815E+01  0.8877113E-01  0.3611576E+00
  0.1970410E+01 -0.9905930E+01  0.0000000E+00  0.3806679E+00 -0.1814031E+01  0.9168150E-01  0.3694625E+00
  0.2931880E+01 -0.9665100E+01  0.0000000E+00  0.3872778E+00 -0.1815521E+01  0.9383332E-01  0.3757385E+00
  0.3865100E+01 -0.9331180E+01  0.0000000E+00  0.3910569E+00 -0.1816293E+01  0.9504169E-01  0.3793318E+00
  0.4761110E+01 -0.8907410E+01  0.0000000E+00  0.3916217E+00 -0.1816604E+01  0.9529712E-01  0.3798500E+00
  0.5611260E+01 -0.8397840E+01  0.0000000E+00  0.3894011E+00 -0.1816193E+01  0.9460145E-01  0.3777351E+00
  0.6407370E+01 -0.7807410E+01  0.0000000E+00  0.3849767E+00 -0.1814837E+01  0.9302004E-01  0.3735697E+00
  0.7141780E+01 -0.7141780E+01  0.0000000E+00  0.3779468E+00 -0.1813075E+01  0.9067521E-01  0.3669084E+00
  0.7807410E+01 -0.6407370E+01  0.0000000E+00  0.3678297E+00 -0.1811203E+01  0.8757927E-01  0.3572514E+00
  0.8397840E+01 -0.5611260E+01  0.0000000E+00  0.3549329E+00 -0.1809008E+01  0.8375166E-01  0.3449101E+00
  0.8907410E+01 -0.4761110E+01  0.0000000E+00  0.3400530E+00 -0.1806821E+01  0.7951777E-01  0.3306251E+00
  0.9331180E+01 -0.3865100E+01  0.0000000E+00  0.3231595E+00 -0.1805786E+01  0.7524202E-01  0.3142780E+00
  0.9665100E+01 -0.2931870E+01  0.0000000E+00  0.3037747E+00 -0.1806581E+01  0.7096361E-01  0.2953697E+00
  0.9905930E+01 -0.1970410E+01  0.0000000E+00  0.2820337E+00 -0.1809561E+01  0.6670156E-01  0.2740327E+00
  0.1005140E+02 -0.9899690E+00  0.0000000E+00  0.2589006E+00 -0.1816035E+01  0.6285786E-01  0.2511542E+00
  0.1010000E+02  0.0000000E+00 -0.2568960E-01  0.2345781E+00 -0.1828402E+01  0.5976244E-01  0.2268376E+00
  0.1005140E+02  0.9899730E+00 -0.2568960E-01  0.2091884E+00 -0.1849610E+01  0.5757190E-01  0.2011101E+00
  0.9905930E+01  0.1970410E+01 -0.2568960E-01  0.1825638E+00 -0.1884029E+01  0.5625439E-01  0.1736807E+00
  0.9665100E+01  0.2931880E+01 -0.2568960E-01  0.1559413E+00 -0.1938127E+01  0.5600251E-01  0.1455383E+00
  0.9331180E+01  0.3865100E+01 -0.2568960E-01  0.1304555E+00 -0.2023047E+01  0.5700787E-01  0.1173403E+00
  0.8907400E+01  0.4761110E+01 -0.2568960E-01  0.1068075E+00 -0.2159012E+01  0.5926504E-01  0.8885659E-01
  0.8397840E+01  0.5611260E+01 -0.2568960E-01  0.8676991E-01 -0.2379763E+01  0.6278448E-01  0.5989262E-01
  0.7807410E+01  0.6407370E+01 -0.2568960E-01  0.7431325E-01 -0.2707633E+01  0.6742500E-01  0.3124628E-01
  0.7141780E+01  0.7141780E+01 -0.2568960E-01  0.7312435E-01 -0.3088875E+01  0.7302276E-01  0.3853162E-02
  0.6407370E+01  0.7807410E+01 -0.2568960E-01  0.8263796E-01  0.2866834E+01  0.7953827E-01 -0.2242088E-01
  0.5611260E+01  0.8397840E+01 -0.2568960E-01  0.9924585E-01  0.2638492E+01  0.8694848E-01 -0.4785080E-01
  0.4761110E+01  0.8907410E+01 -0.2568960E-01  0.1191287E+00  0.2491864E+01  0.9485593E-01 -0.7206934E-01
  0.3865100E+01  0.9331180E+01 -0.2568960E-01  0.1393371E+00  0.2400711E+01  0.1028132E+00 -0.9404407E-01
  0.2931870E+01  0.9665100E+01 -0.2568960E-01  0.1588254E+00  0.2342620E+01  0.1107717E+00 -0.1138206E+00
  0.1970410E+01  0.9905930E+01 -0.2568960E-01  0.1773221E+00  0.2304152E+01  0.1186934E+00 -0.1317384E+00
  0.9899730E+00  0.1005140E+02 -0.2568960E-01  0.1944090E+00  0.2277010E+01  0.1261632E+00 -0.1479111E+00
 -0.4414850E-06  0.1010000E+02 -0.2568960E-01  0.2089275E+00  0.2258934E+01  0.1326897E+00 -0.1613819E+00
 -0.9899740E+00  0.1005140E+02 -0.2568960E-01  0.2207147E+00  0.2247630E+01  0.1382398E+00 -0.1720603E+00
 -0.1970410E+01  0.9905930E+01 -0.2568960E-01  0.2299854E+00  0.2240611E+01  0.1427843E+00 -0.1802940E+00
 -0.2931880E+01  0.9665100E+01 -0.2568960E-01  0.2370224E+00  0.2235188E+01  0.1461434E+00 -0.1866058E+00
 -0.3865100E+01  0.9331180E+01 -0.2568960E-01  0.2409714E+00  0.2232266E+01  0.1480232E+00 -0.1901482E+00
 -0.4761110E+01  0.8907400E+01 -0.2568960E-01  0.2416574E+00  0.2232146E+01  0.1484217E+00 -0.1907074E+00
 -0.5611260E+01  0.8397840E+01 -0.2568960E-01  0.2392817E+00  0.2234093E+01  0.1473301E+00 -0.1885460E+00
 -0.6407370E+01  0.7807410E+01 -0.2568960E-01  0.2345623E+00  0.2236748E+01  0.1449144E+00 -0.1844432E+00
 -0.7141780E+01  0.7141780E+01 -0.2568960E-01  0.2270243E+00  0.2242146E+01  0.1412189E+00 -0.1777562E+00
 -0.7807410E+01  0.6407370E+01 -0.2568960E-01  0.2164404E+00  0.2251803E+01  0.1362655E+00 -0.1681611E+00
 -0.8397840E+01  0.5611260E+01 -0.2568960E-01  0.2029635E+00  0.2266451E+01  0.1300769E+00 -0.1558017E+00
 -0.8907410E+01  0.4761110E+01 -0.2568960E-01  0.1876173E+00  0.2286390E+01  0.1230892E+00 -0.1415956E+00
 -0.9331180E+01  0.3865100E+01 -0.2568960E-01  0.1704734E+00  0.2316375E+01  0.1156486E+00 -0.1252460E+00
 -0.9665100E+01  0.2931880E+01 -0.2568960E-01  0.1514642E+00  0.2362670E+01  0.1077926E+00 -0.1064056E+00
 -0.9905930E+01  0.1970410E+01 -0.2568960E-01  0.1309602E+00  0.2434511E+01  0.9956390E-01 -0.8507406E-01
 -0.1005140E+02  0.9899730E+00 -0.2568960E-01  0.1106481E+00  0.2543857E+01  0.9146304E-01 -0.6226970E-01
 -0.1010000E+02 -0.8829700E-06 -0.2568960E-01  0.9219730E-01  0.2714786E+01  0.8392650E-01 -0.3816654E-01
 -0.1005140E+02 -0.9899740E+00 -0.2568960E-01  0.7798749E-01  0.2981196E+01  0.7698645E-01 -0.1245538E-01
 -0.9905930E+01 -0.1970410E+01 -0.2568960E-01  0.7225548E-01 -0.2933020E+01  0.7068951E-01  0.1496150E-01
 -0.9665100E+01 -0.2931880E+01 -0.2568960E-01  0.7826480E-01 -0.2558511E+01  0.6533311E-01  0.4309250E-01
 -0.9331180E+01 -0.3865100E+01 -0.2568960E-01  0.9394123E-01 -0.2280092E+01  0.6118386E-01  0.7128458E-01
 -0.8907400E+01 -0.4761110E+01 -0.2568960E-01  0.1155242E+00 -0.2099216E+01  0.5824373E-01  0.9976723E-01
 -0.8397840E+01 -0.5611260E+01 -0.2568960E-01  0.1406022E+00 -0.1984588E+01  0.5653392E-01  0.1287358E+00
 -0.7807400E+01 -0.6407370E+01 -0.2568960E-01  0.1670541E+00 -0.1912633E+01  0.5599947E-01  0.1573884E+00
 -0.7141780E+01 -0.7141780E+01 -0.2568960E-01  0.1932589E+00 -0.1867891E+01  0.5657535E-01  0.1847924E+00
 -0.6407370E+01 -0.7807410E+01 -0.2568960E-01  0.2189681E+00 -0.1839997E+01  0.5823702E-01  0.2110817E+00
 -0.5611260E+01 -0.8397850E+01 -0.2568960E-01  0.2442614E+00 -0.1823049E+01  0.6096413E-01  0.2365312E+00
 -0.4761110E+01 -0.8907410E+01 -0.2568960E-01  0.2686065E+00 -0.1812962E+01  0.6441344E-01  0.2607688E+00
 -0.3865100E+01 -0.9331190E+01 -0.2568960E-01  0.2908839E+00 -0.1807618E+01  0.6824550E-01  0.2827649E+00
 -0.2931870E+01 -0.9665100E+01 -0.2568960E-01  0.3111136E+00 -0.1805771E+01  0.7243279E-01  0.3025643E+00
 -0.1970410E+01 -0.9905930E+01 -0.2568960E-01  0.3296094E+00 -0.1806367E+01  0.7693015E-01  0.3205060E+00
 -0.9899710E+00 -0.1005140E+02 -0.2568960E-01  0.3463841E+00 -0.1807829E+01  0.8133767E-01  0.3366989E+00
  0.1204410E-06 -0.1010000E+02 -0.2568960E-01  0.3604200E+00 -0.1809630E+01  0.8526438E-01  0.3501893E+00
  0.9899760E+00 -0.1005140E+02 -0.2568960E-01  0.3716252E+00 -0.1811803E+01  0.8869978E-01  0.3608845E+00
  0.1970410E+01 -0.9905930E+01 -0.2568960E-01  0.3803286E+00 -0.1814035E+01  0.9160111E-01  0.3691328E+00
  0.2931880E+01 -0.9665100E+01 -0.2568960E-01  0.3869829E+00 -0.1815514E+01  0.9375921E-01  0.3754530E+00
  0.3865100E+01 -0.9331180E+01 -0.2568960E-01  0.3907164E+00 -0.1816295E+01  0.9495991E-01  0.3790012E+00
  0.4761110E+01 -0.8907410E+01 -0.2568960E-01  0.3913243E+00 -0.1816598E+01  0.9522261E-01  0.3795621E+00
  0.5611260E+01 -0.8397840E+01 -0.2568960E-01  0.3890547E+00 -0.1816196E+01  0.9451847E-01  0.3773987E+00
  0.6407370E+01 -0.7807410E+01 -0.2568960E-01  0.3846851E+00 -0.1814829E+01  0.9294685E-01  0.3732874E+00
  0.7141780E+01 -0.7141780E+01 -0.2568960E-01  0.3776176E+00 -0.1813076E+01  0.9059665E-01  0.3665887E+00
  0.7807410E+01 -0.6407370E+01 -0.2568960E-01  0.3675476E+00 -0.1811189E+01  0.8750730E-01  0.3569786E+00
  0.8397840E+01 -0.5611260E+01 -0.2568960E-01  0.3546164E+00 -0.1809008E+01  0.8367730E-01  0.3446026E+00
  0.8907410E+01 -0.4761110E+01 -0.2568960E-01  0.3397935E+00 -0.1806801E+01  0.7945056E-01  0.3303744E+00
  0.9331180E+01 -0.3865100E+01 -0.2568960E-01  0.3228767E+00 -0.1805782E+01  0.7517499E-01  0.3140033E+00
  0.9665100E+01 -0.2931870E+01 -0.2568960E-01  0.3035362E+00 -0.1806547E+01  0.7089783E-01  0.2951402E+00
  0.9905930E+01 -0.1970410E+01 -0.2568960E-01  0.2817812E+00 -0.1809557E+01  0.6664100E-01  0.2737876E+00
  0.1005140E+02 -0.9899690E+00 -0.2568960E-01  0.2586975E+00 -0.1815986E+01  0.6279634E-01  0.2509602E+00
  0.1010000E+02  0.0000000E+00 -0.1027320E+00  0.2339381E+00 -0.1828375E+01  0.5959329E-01  0.2262204E+00
  0.1005140E+02  0.9899730E+00 -0.1027320E+00  0.2086171E+00 -0.1849532E+01  0.5739890E-01  0.2005654E+00
  0.9905930E+01  0.1970410E+01 -0.1027320E+00  0.1820572E+00 -0.1884004E+01  0.5609405E-01  0.1732002E+00
  0.9665100E+01  0.2931880E+01 -0.1027320E+00  0.1555232E+00 -0.1937991E+01  0.5583260E-01  0.1451557E+00
  0.9331180E+01  0.3865100E+01 -0.1027320E+00  0.1300896E+00 -0.2022977E+01  0.5683979E-01  0.1170152E+00
  0.8907400E+01  0.4761110E+01 -0.1027320E+00  0.1064900E+00 -0.2158964E+01  0.5908468E-01  0.8859530E-01
  0.8397840E+01  0.5611260E+01 -0.1027320E+00  0.8652280E-01 -0.2379749E+01  0.6260481E-01  0.5972296E-01
  0.7807410E+01  0.6407370E+01 -0.1027320E+00  0.7408991E-01 -0.2707625E+01  0.6722212E-01  0.3115289E-01
  0.7141780E+01  0.7141780E+01 -0.1027320E+00  0.7291483E-01 -0.3089035E+01  0.7281414E-01  0.3830488E-02
  0.6407370E+01  0.7807410E+01 -0.1027320E+00  0.8241559E-01  0.2866354E+01  0.7931349E-01 -0.2239865E-01
  0.5611260E+01  0.8397840E+01 -0.1027320E+00  0.9897456E-01  0.2638422E+01  0.8670748E-01 -0.4772605E-01
  0.4761110E+01  0.8907410E+01 -0.1027320E+00  0.1188154E+00  0.2491629E+01  0.9458964E-01 -0.7190206E-01
  0.3865100E+01  0.9331180E+01 -0.1027320E+00  0.1389693E+00  0.2400623E+01  0.1025335E+00 -0.9380481E-01
  0.2931870E+01  0.9665100E+01 -0.1027320E+00  0.1584367E+00  0.2342435E+01  0.1104796E+00 -0.1135625E+00
  0.1970410E+01  0.9905930E+01 -0.1027320E+00  0.1768447E+00  0.2304156E+01  0.1183745E+00 -0.1313832E+00
  0.9899730E+00  0.1005140E+02 -0.1027320E+00  0.1939203E+00  0.2276901E+01  0.1258301E+00 -0.1475530E+00
 -0.4414850E-06  0.1010000E+02 -0.1027320E+00  0.2083810E+00  0.2258921E+01  0.1323406E+00 -0.1609615E+00
 -0.9899740E+00  0.1005140E+02 -0.1027320E+00  0.2201731E+00  0.2247555E+01  0.1378876E+00 -0.1716484E+00
 -0.1970410E+01  0.9905930E+01 -0.1027320E+00  0.2293680E+00  0.2240644E+01  0.1424070E+00 -0.1798053E+00
 -0.2931880E+01  0.9665100E+01 -0.1027320E+00  0.2364339E+00  0.2235131E+01  0.1457698E+00 -0.1861509E+00
 -0.3865100E+01  0.9331180E+01 -0.1027320E+00  0.2403416E+00  0.2232278E+01  0.1476387E+00 -0.1896494E+00
 -0.4761110E+01  0.8907400E+01 -0.1027320E+00  0.2410601E+00  0.2232092E+01  0.1480446E+00 -0.1902440E+00
 -0.5611260E+01  0.8397840E+01 -0.1027320E+00  0.2386391E+00  0.2234131E+01  0.1469416E+00 -0.1880340E+00
 -0.6407370E+01  0.7807410E+01 -0.1027320E+00  0.2339849E+00  0.2236690E+01  0.1445469E+00 -0.1839976E+00
 -0.7141780E+01  0.7141780E+01 -0.1027320E+00  0.2264305E+00  0.2242148E+01  0.1408500E+00 -0.1772909E+00
 -0.7807410E+01  0.6407370E+01 -0.1027320E+00  0.2158996E+00  0.2251722E+01  0.1359115E+00 -0.1677519E+00
 -0.8397840E+01  0.5611260E+01 -0.1027320E+00  0.2024179E+00  0.2266470E+01  0.1297302E+00 -0.1553804E+00
 -0.8907410E+01  0.4761110E+01 -0.1027320E+00  0.1871582E+00  0.2286265E+01  0.1227705E+00 -0.1412643E+00
 -0.9331180E+01  0.3865100E+01 -0.1027320E+00  0.1700263E+00  0.2316325E+01  0.1153391E+00 -0.1249233E+00
 -0.9665100E+01  0.2931880E+01 -0.1027320E+00  0.1510764E+00  0.2362494E+01  0.1074980E+00 -0.1061520E+00
 -0.9905930E+01  0.1970410E+01 -0.1027320E+00  0.1306062E+00  0.2434481E+01  0.9929229E-01 -0.8484713E-01
 -0.1005140E+02  0.9899730E+00 -0.1027320E+00  0.1103712E+00  0.2543515E+01  0.9121292E-01 -0.6214507E-01
 -0.1010000E+02 -0.8829700E-06 -0.1027320E+00  0.9194659E-01  0.2714616E+01  0.8369181E-01 -0.3807698E-01
 -0.1005140E+02 -0.9899740E+00 -0.1027320E+00  0.7776212E-01  0.2980946E+01  0.7676085E-01 -0.1243860E-01
 -0.9905930E+01 -0.1970410E+01 -0.1027320E+00  0.7205013E-01 -0.2933084E+01  0.7048958E-01  0.1491447E-01
 -0.9665100E+01 -0.2931880E+01 -0.1027320E+00  0.7802328E-01 -0.2558698E+01  0.6513952E-01  0.4294734E-01
 -0.9331180E+01 -0.3865100E+01 -0.1027320E+00  0.9367070E-01 -0.2280046E+01  0.6100443E-01  0.7108206E-01
 -0.8907400E+01 -0.4761110E+01 -0.1027320E+00  0.1152042E+00 -0.2099044E+01  0.5806530E-01  0.9950086E-01
 -0.8397840E+01 -0.5611260E+01 -0.1027320E+00  0.1402092E+00 -0.1984553E+01  0.5637133E-01  0.1283779E+00
 -0.7807400E+01 -0.6407370E+01 -0.1027320E+00  0.1665875E+00 -0.1912538E+01  0.5582826E-01  0.1569541E+00
 -0.7141780E+01 -0.7141780E+01 -0.1027320E+00  0.1927280E+00 -0.1867846E+01  0.5641147E-01  0.1842873E+00
 -0.6407370E+01 -0.7807410E+01 -0.1027320E+00  0.2183931E+00 -0.1839922E+01  0.5806828E-01  0.2105318E+00
 -0.5611260E+01 -0.8397850E+01 -0.1027320E+00  0.2435874E+00 -0.1823044E+01  0.6079488E-01  0.2358788E+00
 -0.4761110E+01 -0.8907410E+01 -0.1027320E+00  0.2678877E+00 -0.1812916E+01  0.6422913E-01  0.2600739E+00
 -0.3865100E+01 -0.9331190E+01 -0.1027320E+00  0.2900950E+00 -0.1807617E+01  0.6806023E-01  0.2819980E+00
 -0.2931870E+01 -0.9665100E+01 -0.1027320E+00  0.3103047E+00 -0.1805763E+01  0.7224210E-01  0.3017782E+00
 -0.1970410E+01 -0.9905930E+01 -0.1027320E+00  0.3287036E+00 -0.1806390E+01  0.7672622E-01  0.3196234E+00
 -0.9899710E+00 -0.1005140E+02 -0.1027320E+00  0.3454727E+00 -0.1807831E+01  0.8112443E-01  0.3358127E+00
  0.1204410E-06 -0.1010000E+02 -0.1027320E+00  0.3594458E+00 -0.1809659E+01  0.8504394E-01  0.3492403E+00
  0.9899760E+00 -0.1005140E+02 -0.1027320E+00  0.3706593E+00 -0.1811832E+01  0.8847937E-01  0.3599441E+00
  0.1970410E+01 -0.9905930E+01 -0.1027320E+00  0.3792843E+00 -0.1814074E+01  0.9136400E-01  0.3681158E+00
  0.2931880E+01 -0.9665100E+01 -0.1027320E+00  0.3859724E+00 -0.1815543E+01  0.9352520E-01  0.3744700E+00
  0.3865100E+01 -0.9331180E+01 -0.1027320E+00  0.3896621E+00 -0.1816338E+01  0.9471974E-01  0.3779745E+00
  0.4761110E+01 -0.8907410E+01 -0.1027320E+00  0.3903044E+00 -0.1816632E+01  0.9498718E-01  0.3785697E+00
  0.5611260E+01 -0.8397840E+01 -0.1027320E+00  0.3879866E+00 -0.1816238E+01  0.9427481E-01  0.3763587E+00
  0.6407370E+01 -0.7807410E+01 -0.1027320E+00  0.3836846E+00 -0.1814863E+01  0.9271773E-01  0.3723134E+00
  0.7141780E+01 -0.7141780E+01 -0.1027320E+00  0.3765980E+00 -0.1813113E+01  0.9036542E-01  0.3655956E+00
  0.7807410E+01 -0.6407370E+01 -0.1027320E+00  0.3665845E+00 -0.1811204E+01  0.8728339E-01  0.3560418E+00
  0.8397840E+01 -0.5611260E+01 -0.1027320E+00  0.3536421E+00 -0.1809040E+01  0.8345814E-01  0.3436532E+00
  0.8907410E+01 -0.4761110E+01 -0.1027320E+00  0.3389106E+00 -0.1806812E+01  0.7924754E-01  0.3295151E+00
  0.9331180E+01 -0.3865100E+01 -0.1027320E+00  0.3220024E+00 -0.1805795E+01  0.7497548E-01  0.3131521E+00
  0.9665100E+01 -0.2931870E+01 -0.1027320E+00  0.3027304E+00 -0.1806522E+01  0.7070240E-01  0.2943584E+00
  0.9905930E+01 -0.1970410E+01 -0.1027320E+00  0.2810054E+00 -0.1809566E+01  0.6645972E-01  0.2730332E+00
  0.1005140E+02 -0.9899690E+00 -0.1027320E+00  0.2580224E+00 -0.1815943E+01  0.6262174E-01  0.2503080E+00
  0.1010000E+02  0.0000000E+00 -0.2310450E+00  0.2328998E+00 -0.1828335E+01  0.5931984E-01  0.2252187E+00
  0.1005140E+02  0.9899730E+00 -0.2310450E+00  0.2076701E+00 -0.1849482E+01  0.5712849E-01  0.1996578E+00
  0.9905930E+01  0.1970410E+01 -0.2310450E+00  0.1812570E+00 -0.1883856E+01  0.5582191E-01  0.1724472E+00
  0.9665100E+01  0.2931880E+01 -0.2310450E+00  0.1548384E+00 -0.1937897E+01  0.5557323E-01  0.1445218E+00
  0.9331180E+01  0.3865100E+01 -0.2310450E+00  0.1294923E+00 -0.2022944E+01  0.5657499E-01  0.1164797E+00
  0.8907400E+01  0.4761110E+01 -0.2310450E+00  0.1059758E+00 -0.2159082E+01  0.5880977E-01  0.8816053E-01
  0.8397840E+01  0.5611260E+01 -0.2310450E+00  0.8609637E-01 -0.2379852E+01  0.6230240E-01  0.5942219E-01
  0.7807410E+01  0.6407370E+01 -0.2310450E+00  0.7374071E-01 -0.2707683E+01  0.6690706E-01  0.3100220E-01
  0.7141780E+01  0.7141780E+01 -0.2310450E+00  0.7257830E-01 -0.3089510E+01  0.7247988E-01  0.3778378E-02
  0.6407370E+01  0.7807410E+01 -0.2310450E+00  0.8206208E-01  0.2865618E+01  0.7895686E-01 -0.2236065E-01
  0.5611260E+01  0.8397840E+01 -0.2310450E+00  0.9856456E-01  0.2637611E+01  0.8630972E-01 -0.4759837E-01
  0.4761110E+01  0.8907410E+01 -0.2310450E+00  0.1182986E+00  0.2491300E+01  0.9415464E-01 -0.7162021E-01
  0.3865100E+01  0.9331180E+01 -0.2310450E+00  0.1383832E+00  0.2400319E+01  0.1020726E+00 -0.9344020E-01
  0.2931870E+01  0.9665100E+01 -0.2310450E+00  0.1577894E+00  0.2342126E+01  0.1099933E+00 -0.1131325E+00
  0.1970410E+01  0.9905930E+01 -0.2310450E+00  0.1761529E+00  0.2303714E+01  0.1178535E+00 -0.1309213E+00
  0.9899730E+00  0.1005140E+02 -0.2310450E+00  0.1930990E+00  0.2276675E+01  0.1252638E+00 -0.1469565E+00
 -0.4414850E-06  0.1010000E+02 -0.2310450E+00  0.2075047E+00  0.2258729E+01  0.1317533E+00 -0.1603099E+00
 -0.9899740E+00  0.1005140E+02 -0.2310450E+00  0.2192625E+00  0.2247356E+01  0.1372834E+00 -0.1709659E+00
 -0.1970410E+01  0.9905930E+01 -0.2310450E+00  0.2284728E+00  0.2240322E+01  0.1417935E+00 -0.1791492E+00
 -0.2931880E+01  0.9665100E+01 -0.2310450E+00  0.2354429E+00  0.2234944E+01  0.1451243E+00 -0.1853977E+00
 -0.3865100E+01  0.9331180E+01 -0.2310450E+00  0.2393299E+00  0.2232114E+01  0.1469862E+00 -0.1888753E+00
 -0.4761110E+01  0.8907400E+01 -0.2310450E+00  0.2400530E+00  0.2231912E+01  0.1473920E+00 -0.1894757E+00
 -0.5611260E+01  0.8397840E+01 -0.2310450E+00  0.2377079E+00  0.2233824E+01  0.1463106E+00 -0.1873453E+00
 -0.6407370E+01  0.7807410E+01 -0.2310450E+00  0.2330128E+00  0.2236505E+01  0.1439126E+00 -0.1832598E+00
 -0.7141780E+01  0.7141780E+01 -0.2310450E+00  0.2254783E+00  0.2241971E+01  0.1402263E+00 -0.1765702E+00
 -0.7807410E+01  0.6407370E+01 -0.2310450E+00  0.2149897E+00  0.2251518E+01  0.1353045E+00 -0.1670726E+00
 -0.8397840E+01  0.5611260E+01 -0.2310450E+00  0.2016275E+00  0.2266094E+01  0.1291655E+00 -0.1548222E+00
 -0.8907410E+01  0.4761110E+01 -0.2310450E+00  0.1863899E+00  0.2286019E+01  0.1222318E+00 -0.1407145E+00
 -0.9331180E+01  0.3865100E+01 -0.2310450E+00  0.1693111E+00  0.2316082E+01  0.1148237E+00 -0.1244258E+00
 -0.9665100E+01  0.2931880E+01 -0.2310450E+00  0.1504294E+00  0.2362217E+01  0.1070083E+00 -0.1057271E+00
 -0.9905930E+01  0.1970410E+01 -0.2310450E+00  0.1300869E+00  0.2433859E+01  0.9884488E-01 -0.8457120E-01
 -0.1005140E+02  0.9899730E+00 -0.2310450E+00  0.1099185E+00  0.2543002E+01  0.9080707E-01 -0.6193676E-01
 -0.1010000E+02 -0.8829700E-06 -0.2310450E+00  0.9154746E-01  0.2714155E+01  0.8331101E-01 -0.3795012E-01
 -0.1005140E+02 -0.9899740E+00 -0.2310450E+00  0.7740364E-01  0.2980624E+01  0.7640301E-01 -0.1240582E-01
 -0.9905930E+01 -0.1970410E+01 -0.2310450E+00  0.7169764E-01 -0.2933784E+01  0.7015508E-01  0.1479243E-01
 -0.9665100E+01 -0.2931880E+01 -0.2310450E+00  0.7764106E-01 -0.2559168E+01  0.6484047E-01  0.4270652E-01
 -0.9331180E+01 -0.3865100E+01 -0.2310450E+00  0.9322901E-01 -0.2280114E+01  0.6072158E-01  0.7074276E-01
 -0.8907400E+01 -0.4761110E+01 -0.2310450E+00  0.1146872E+00 -0.2098930E+01  0.5779337E-01  0.9906095E-01
 -0.8397840E+01 -0.5611260E+01 -0.2310450E+00  0.1395727E+00 -0.1984400E+01  0.5609590E-01  0.1278037E+00
 -0.7807400E+01 -0.6407370E+01 -0.2310450E+00  0.1658171E+00 -0.1912506E+01  0.5556509E-01  0.1562301E+00
 -0.7141780E+01 -0.7141780E+01 -0.2310450E+00  0.1918649E+00 -0.1867798E+01  0.5615014E-01  0.1834647E+00
 -0.6407370E+01 -0.7807410E+01 -0.2310450E+00  0.2174428E+00 -0.1839868E+01  0.5780427E-01  0.2096188E+00
 -0.5611260E+01 -0.8397850E+01 -0.2310450E+00  0.2425445E+00 -0.1822934E+01  0.6050876E-01  0.2348756E+00
 -0.4761110E+01 -0.8907410E+01 -0.2310450E+00  0.2666925E+00 -0.1812868E+01  0.6393000E-01  0.2589167E+00
 -0.3865100E+01 -0.9331190E+01 -0.2310450E+00  0.2888175E+00 -0.1807589E+01  0.6775244E-01  0.2807582E+00
 -0.2931870E+01 -0.9665100E+01 -0.2310450E+00  0.3089612E+00 -0.1805746E+01  0.7192434E-01  0.3004729E+00
 -0.1970410E+01 -0.9905930E+01 -0.2310450E+00  0.3273229E+00 -0.1806332E+01  0.7638524E-01  0.3182853E+00
 -0.9899710E+00 -0.1005140E+02 -0.2310450E+00  0.3439557E+00 -0.1807799E+01  0.8075725E-01  0.3343408E+00
  0.1204410E-06 -0.1010000E+02 -0.2310450E+00  0.3578732E+00 -0.1809644E+01  0.8466691E-01  0.3477136E+00
  0.9899760E+00 -0.1005140E+02 -0.2310450E+00  0.3690541E+00 -0.1811824E+01  0.8809346E-01  0.3583859E+00
  0.1970410E+01 -0.9905930E+01 -0.2310450E+00  0.3777033E+00 -0.1814040E+01  0.9097078E-01  0.3665844E+00
  0.2931880E+01 -0.9665100E+01 -0.2310450E+00  0.3842922E+00 -0.1815526E+01  0.9311173E-01  0.3728414E+00
  0.3865100E+01 -0.9331180E+01 -0.2310450E+00  0.3879609E+00 -0.1816329E+01  0.9430274E-01  0.3763251E+00
  0.4761110E+01 -0.8907410E+01 -0.2310450E+00  0.3886087E+00 -0.1816620E+01  0.9457005E-01  0.3769260E+00
  0.5611260E+01 -0.8397840E+01 -0.2310450E+00  0.3863711E+00 -0.1816209E+01  0.9387160E-01  0.3747943E+00
  0.6407370E+01 -0.7807410E+01 -0.2310450E+00  0.3820212E+00 -0.1814854E+01  0.9231252E-01  0.3707002E+00
  0.7141780E+01 -0.7141780E+01 -0.2310450E+00  0.3749522E+00 -0.1813102E+01  0.8996646E-01  0.3639989E+00
  0.7807410E+01 -0.6407370E+01 -0.2310450E+00  0.3649810E+00 -0.1811179E+01  0.8689252E-01  0.3544867E+00
  0.8397840E+01 -0.5611260E+01 -0.2310450E+00  0.3521629E+00 -0.1808994E+01  0.8309347E-01  0.3422195E+00
  0.8907410E+01 -0.4761110E+01 -0.2310450E+00  0.3374438E+00 -0.1806800E+01  0.7890078E-01  0.3280899E+00
  0.9331180E+01 -0.3865100E+01 -0.2310450E+00  0.3205895E+00 -0.1805772E+01  0.7463954E-01  0.3117797E+00
  0.9665100E+01 -0.2931870E+01 -0.2310450E+00  0.3013904E+00 -0.1806479E+01  0.7037666E-01  0.2930585E+00
  0.9905930E+01 -0.1970410E+01 -0.2310450E+00  0.2798142E+00 -0.1809478E+01  0.6615429E-01  0.2718816E+00
  0.1005140E+02 -0.9899690E+00 -0.2310450E+00  0.2569031E+00 -0.1815908E+01  0.6234140E-01  0.2492243E+00
  0.1010000E+02  0.0000000E+00 -0.4105000E+00  0.2314676E+00 -0.1828290E+01  0.5894491E-01  0.2238364E+00
  0.1005140E+02  0.9899730E+00 -0.4105000E+00  0.2063516E+00 -0.1849476E+01  0.5676452E-01  0.1983905E+00
  0.9905930E+01  0.1970410E+01 -0.4105000E+00  0.1801385E+00 -0.1883752E+01  0.5545965E-01  0.1713887E+00
  0.9665100E+01  0.2931880E+01 -0.4105000E+00  0.1538855E+00 -0.1937861E+01  0.5522600E-01  0.1436344E+00
  0.9331180E+01  0.3865100E+01 -0.4105000E+00  0.1286664E+00 -0.2022938E+01  0.5621349E-01  0.1157371E+00
  0.8907400E+01  0.4761110E+01 -0.4105000E+00  0.1052706E+00 -0.2159339E+01  0.5844090E-01  0.8755887E-01
  0.8397840E+01  0.5611260E+01 -0.4105000E+00  0.8551918E-01 -0.2380088E+01  0.6189865E-01  0.5900922E-01
  0.7807410E+01  0.6407370E+01 -0.4105000E+00  0.7326772E-01 -0.2707816E+01  0.6648203E-01  0.3079447E-01
  0.7141780E+01  0.7141780E+01 -0.4105000E+00  0.7211671E-01 -0.3090283E+01  0.7202180E-01  0.3698686E-02
  0.6407370E+01  0.7807410E+01 -0.4105000E+00  0.8157761E-01  0.2864742E+01  0.7847122E-01 -0.2229742E-01
  0.5611260E+01  0.8397840E+01 -0.4105000E+00  0.9799297E-01  0.2636704E+01  0.8576623E-01 -0.4740018E-01
  0.4761110E+01  0.8907410E+01 -0.4105000E+00  0.1175806E+00  0.2490952E+01  0.9355841E-01 -0.7121811E-01
  0.3865100E+01  0.9331180E+01 -0.4105000E+00  0.1375831E+00  0.2399842E+01  0.1014383E+00 -0.9294832E-01
  0.2931870E+01  0.9665100E+01 -0.4105000E+00  0.1568804E+00  0.2341775E+01  0.1093202E+00 -0.1125192E+00
  0.1970410E+01  0.9905930E+01 -0.4105000E+00  0.1751674E+00  0.2303216E+01  0.1171293E+00 -0.1302472E+00
  0.9899730E+00  0.1005140E+02 -0.4105000E+00  0.1919466E+00  0.2276414E+01  0.1244782E+00 -0.1461119E+00
 -0.4414850E-06  0.1010000E+02 -0.4105000E+00  0.2063063E+00  0.2258415E+01  0.1309424E+00 -0.1594252E+00
 -0.9899740E+00  0.1005140E+02 -0.4105000E+00  0.2179802E+00  0.2247121E+01  0.1364405E+00 -0.1699981E+00
 -0.1970410E+01  0.9905930E+01 -0.4105000E+00  0.2271939E+00  0.2239943E+01  0.1409322E+00 -0.1781998E+00
 -0.2931880E+01  0.9665100E+01 -0.4105000E+00  0.2340485E+00  0.2234722E+01  0.1442238E+00 -0.1843317E+00
 -0.3865100E+01  0.9331180E+01 -0.4105000E+00  0.2379461E+00  0.2231841E+01  0.1460850E+00 -0.1878231E+00
 -0.4761110E+01  0.8907400E+01 -0.4105000E+00  0.2386359E+00  0.2231693E+01  0.1464806E+00 -0.1883892E+00
 -0.5611260E+01  0.8397840E+01 -0.4105000E+00  0.2363769E+00  0.2233462E+01  0.1454240E+00 -0.1863488E+00
 -0.6407370E+01  0.7807410E+01 -0.4105000E+00  0.2316445E+00  0.2236280E+01  0.1430266E+00 -0.1822158E+00
 -0.7141780E+01  0.7141780E+01 -0.4105000E+00  0.2241752E+00  0.2241683E+01  0.1393653E+00 -0.1755900E+00