 VARIABLES="X" "Y" "Z" "abs(eta) (m)" "angle(phi) (rad)" "PRE1" "PRE2"
ZONE N=   3200 ,E =    3136 ,F=FEPOINT,ET=QUADRILATERAL
  0.1010000E+02  0.0000000E+00  0.0000000E+00  0.3884221E+00 -0.1815606E+01  0.9414259E-01  0.3768407E+00
  0.1005140E+02  0.9899730E+00  0.0000000E+00  0.3911572E+00 -0.1816458E+01  0.9512868E-01  0.3794134E+00
  0.9905930E+01  0.1970410E+01  0.0000000E+00  0.3911575E+00 -0.1816651E+01  0.9520215E-01  0.3793952E+00
  0.9665100E+01  0.2931880E+01  0.0000000E+00  0.3889412E+00 -0.1815857E+01  0.9436302E-01  0.3773207E+00
  0.9331180E+01  0.3865100E+01  0.0000000E+00  0.3840432E+00 -0.1814510E+01  0.9267282E-01  0.3726942E+00
  0.8907400E+01  0.4761110E+01  0.0000000E+00  0.3760014E+00 -0.1812884E+01  0.9013891E-01  0.3650370E+00
  0.8397840E+01  0.5611260E+01  0.0000000E+00  0.3651420E+00 -0.1810745E+01  0.8677690E-01  0.3546808E+00
  0.7807410E+01  0.6407370E+01  0.0000000E+00  0.3522356E+00 -0.1808303E+01  0.8287382E-01  0.3423476E+00
  0.7141780E+01  0.7141780E+01  0.0000000E+00  0.3371651E+00 -0.1806560E+01  0.7875685E-01  0.3278379E+00
  0.6407370E+01  0.7807410E+01  0.0000000E+00  0.3194420E+00 -0.1806059E+01  0.7446135E-01  0.3106424E+00
  0.5611260E+01  0.8397840E+01  0.0000000E+00  0.2992419E+00 -0.1806938E+01  0.7000856E-01  0.2909373E+00
  0.4761110E+01  0.8907410E+01  0.0000000E+00  0.2774881E+00 -0.1810214E+01  0.6580260E-01  0.2695732E+00
  0.3865100E+01  0.9331180E+01  0.0000000E+00  0.2545017E+00 -0.1817895E+01  0.6224906E-01  0.2467715E+00
  0.2931870E+01  0.9665100E+01  0.0000000E+00  0.2299060E+00 -0.1832113E+01  0.5939693E-01  0.2221008E+00
  0.1970410E+01  0.9905930E+01  0.0000000E+00  0.2037684E+00 -0.1855611E+01  0.5725471E-01  0.1955593E+00
  0.9899730E+00  0.1005140E+02  0.0000000E+00  0.1772079E+00 -0.1892927E+01  0.5610188E-01  0.1680929E+00
 -0.4414850E-06  0.1010000E+02  0.0000000E+00  0.1511506E+00 -0.1951451E+01  0.5615676E-01  0.1403314E+00
 -0.9899740E+00  0.1005140E+02  0.0000000E+00  0.1258630E+00 -0.2044836E+01  0.5745444E-01  0.1119843E+00
 -0.1970410E+01  0.9905930E+01  0.0000000E+00  0.1023154E+00 -0.2197149E+01  0.5997664E-01  0.8289300E-01
 -0.2931880E+01  0.9665100E+01  0.0000000E+00  0.8343913E-01 -0.2439189E+01  0.6368839E-01  0.5390620E-01
 -0.3865100E+01  0.9331180E+01  0.0000000E+00  0.7320546E-01 -0.2779587E+01  0.6846090E-01  0.2592577E-01
 -0.4761110E+01  0.8907400E+01  0.0000000E+00  0.7429906E-01  0.3125699E+01  0.7428968E-01 -0.1180819E-02
 -0.5611260E+01  0.8397840E+01  0.0000000E+00  0.8574618E-01  0.2812191E+01  0.8113613E-01 -0.2773691E-01
 -0.6407370E+01  0.7807410E+01  0.0000000E+00  0.1033831E+00  0.2601281E+01  0.8865602E-01 -0.5318056E-01
 -0.7141780E+01  0.7141780E+01  0.0000000E+00  0.1231411E+00  0.2470364E+01  0.9642663E-01 -0.7658742E-01
 -0.7807410E+01  0.6407370E+01  0.0000000E+00  0.1431384E+00  0.2388268E+01  0.1044079E+00 -0.9791632E-01
 -0.8397840E+01  0.5611260E+01  0.0000000E+00  0.1628042E+00  0.2334231E+01  0.1125640E+00 -0.1176203E+00
 -0.8907410E+01  0.4761110E+01  0.0000000E+00  0.1813591E+00  0.2297178E+01  0.1204531E+00 -0.1355809E+00
 -0.9331180E+01  0.3865100E+01  0.0000000E+00  0.1976491E+00  0.2272463E+01  0.1275808E+00 -0.1509580E+00
 -0.9665100E+01  0.2931880E+01  0.0000000E+00  0.2113680E+00  0.2256810E+01  0.1338926E+00 -0.1635518E+00
 -0.9905930E+01  0.1970410E+01  0.0000000E+00  0.2228446E+00  0.2246547E+01  0.1393856E+00 -0.1738717E+00
 -0.1005140E+02  0.9899730E+00  0.0000000E+00  0.2320849E+00  0.2238901E+01  0.1437763E+00 -0.1821860E+00
 -0.1010000E+02 -0.8829700E-06  0.0000000E+00  0.2383554E+00  0.2234102E+01  0.1467614E+00 -0.1878148E+00
 -0.1005140E+02 -0.9899740E+00  0.0000000E+00  0.2413188E+00  0.2232533E+01  0.1482875E+00 -0.1903827E+00
 -0.9905930E+01 -0.1970410E+01  0.0000000E+00  0.2413658E+00  0.2232918E+01  0.1483896E+00 -0.1903628E+00
 -0.9665100E+01 -0.2931880E+01  0.0000000E+00  0.2389470E+00  0.2234020E+01  0.1471103E+00 -0.1882930E+00
 -0.9331180E+01 -0.3865100E+01  0.0000000E+00  0.2336873E+00  0.2237303E+01  0.1444757E+00 -0.1836750E+00
 -0.8907400E+01 -0.4761110E+01  0.0000000E+00  0.2252008E+00  0.2244276E+01  0.1404600E+00 -0.1760296E+00
 -0.8397840E+01 -0.5611260E+01  0.0000000E+00  0.2137966E+00  0.2254905E+01  0.1351157E+00 -0.1656887E+00
 -0.7807400E+01 -0.6407370E+01  0.0000000E+00  0.2002866E+00  0.2269337E+01  0.1288045E+00 -0.1533758E+00
 -0.7141780E+01 -0.7141780E+01  0.0000000E+00  0.1847662E+00  0.2290975E+01  0.1218567E+00 -0.1388865E+00
 -0.6407370E+01 -0.7807410E+01  0.0000000E+00  0.1669565E+00  0.2324726E+01  0.1142832E+00 -0.1217121E+00
 -0.5611260E+01 -0.8397850E+01  0.0000000E+00  0.1472257E+00  0.2375940E+01  0.1061394E+00 -0.1020286E+00
 -0.4761110E+01 -0.8907410E+01  0.0000000E+00  0.1268846E+00  0.2452396E+01  0.9792407E-01 -0.8068814E-01
 -0.3865100E+01 -0.9331190E+01  0.0000000E+00  0.1070909E+00  0.2570284E+01  0.9008427E-01 -0.5790763E-01
 -0.2931870E+01 -0.9665100E+01  0.0000000E+00  0.8909656E-01  0.2759079E+01  0.8265749E-01 -0.3325564E-01
 -0.1970410E+01 -0.9905930E+01  0.0000000E+00  0.7597584E-01  0.3052902E+01  0.7567722E-01 -0.6729526E-02
 -0.9899710E+00 -0.1005140E+02  0.0000000E+00  0.7254690E-01 -0.2851917E+01  0.6952433E-01  0.2072244E-01
  0.1204410E-06 -0.1010000E+02  0.0000000E+00  0.8067726E-01 -0.2497036E+01  0.6449068E-01  0.4847443E-01
  0.9899760E+00 -0.1005140E+02  0.0000000E+00  0.9785107E-01 -0.2238827E+01  0.6061298E-01  0.7681730E-01
  0.1970410E+01 -0.9905930E+01  0.0000000E+00  0.1206968E+00 -0.2071006E+01  0.5788730E-01  0.1059093E+00
  0.2931880E+01 -0.9665100E+01  0.0000000E+00  0.1462026E+00 -0.1966605E+01  0.5636910E-01  0.1348989E+00
  0.3865100E+01 -0.9331180E+01  0.0000000E+00  0.1722526E+00 -0.1902069E+01  0.5602455E-01  0.1628871E+00
  0.4761110E+01 -0.8907410E+01  0.0000000E+00  0.1983329E+00 -0.1861595E+01  0.5686541E-01  0.1900059E+00
  0.5611260E+01 -0.8397840E+01  0.0000000E+00  0.2244328E+00 -0.1836124E+01  0.5885197E-01  0.2165791E+00
  0.6407370E+01 -0.7807410E+01  0.0000000E+00  0.2497833E+00 -0.1820431E+01  0.6170899E-01  0.2420407E+00
  0.7141780E+01 -0.7141780E+01  0.0000000E+00  0.2733363E+00 -0.1811326E+01  0.6511325E-01  0.2654675E+00
  0.7807410E+01 -0.6407370E+01  0.0000000E+00  0.2950138E+00 -0.1807055E+01  0.6905284E-01  0.2868185E+00
  0.8397840E+01 -0.5611260E+01  0.0000000E+00  0.3152301E+00 -0.1806053E+01  0.7347784E-01  0.3065469E+00
  0.8907410E+01 -0.4761110E+01  0.0000000E+00  0.3337657E+00 -0.1806612E+01  0.7797984E-01  0.3245285E+00
  0.9331180E+01 -0.3865100E+01  0.0000000E+00  0.3497138E+00 -0.1807940E+01  0.8215711E-01  0.3399264E+00
  0.9665100E+01 -0.2931870E+01  0.0000000E+00  0.3628752E+00 -0.1810039E+01  0.8598942E-01  0.3525397E+00
  0.9905930E+01 -0.1970410E+01  0.0000000E+00  0.3737382E+00 -0.1812473E+01  0.8944715E-01  0.3628767E+00
  0.1005140E+02 -0.9899690E+00  0.0000000E+00  0.3824925E+00 -0.1814361E+01  0.9224337E-01  0.3712030E+00
  0.1010000E+02  0.0000000E+00 -0.2568960E-01  0.3880835E+00 -0.1815609E+01  0.9406140E-01  0.3765120E+00
  0.1005140E+02  0.9899730E+00 -0.2568960E-01  0.3908609E+00 -0.1816452E+01  0.9505455E-01  0.3791265E+00
  0.9905930E+01  0.1970410E+01 -0.2568960E-01  0.3908091E+00 -0.1816655E+01  0.9511863E-01  0.3790570E+00
  0.9665100E+01  0.2931880E+01 -0.2568960E-01  0.3886451E+00 -0.1815852E+01  0.9428921E-01  0.3770339E+00
  0.9331180E+01  0.3865100E+01 -0.2568960E-01  0.3837087E+00 -0.1814512E+01  0.9259277E-01  0.3723694E+00
  0.8907400E+01  0.4761110E+01 -0.2568960E-01  0.3757142E+00 -0.1812873E+01  0.9006601E-01  0.3647592E+00
  0.8397840E+01  0.5611260E+01 -0.2568960E-01  0.3648173E+00 -0.1810746E+01  0.8670025E-01  0.3543653E+00
  0.7807410E+01  0.6407370E+01 -0.2568960E-01  0.3519686E+00 -0.1808286E+01  0.8280528E-01  0.3420894E+00
  0.7141780E+01  0.7141780E+01 -0.2568960E-01  0.3368707E+00 -0.1806557E+01  0.7868705E-01  0.3275519E+00
  0.6407370E+01  0.7807410E+01 -0.2568960E-01  0.3191932E+00 -0.1806029E+01  0.7439417E-01  0.3104026E+00
  0.5611260E+01  0.8397840E+01 -0.2568960E-01  0.2989745E+00 -0.1806935E+01  0.6994526E-01  0.2906775E+00
  0.4761110E+01  0.8907410E+01 -0.2568960E-01  0.2772719E+00 -0.1810174E+01  0.6574054E-01  0.2693657E+00
  0.3865100E+01  0.9331180E+01 -0.2568960E-01  0.2542769E+00 -0.1817883E+01  0.6219117E-01  0.2465543E+00
  0.2931870E+01  0.9665100E+01 -0.2568960E-01  0.2297172E+00 -0.1832053E+01  0.5933476E-01  0.2219220E+00
  0.1970410E+01  0.9905930E+01 -0.2568960E-01  0.2035844E+00 -0.1855602E+01  0.5720130E-01  0.1953833E+00
  0.9899730E+00  0.1005140E+02 -0.2568960E-01  0.1770597E+00 -0.1892842E+01  0.5604072E-01  0.1679570E+00
 -0.4414850E-06  0.1010000E+02 -0.2568960E-01  0.1510125E+00 -0.1951430E+01  0.5610253E-01  0.1402044E+00
 -0.9899740E+00  0.1005140E+02 -0.2568960E-01  0.1257421E+00 -0.2044759E+01  0.5739063E-01  0.1118811E+00
 -0.1970410E+01  0.9905930E+01 -0.2568960E-01  0.1022191E+00 -0.2197150E+01  0.5992029E-01  0.8281487E-01
 -0.2931880E+01  0.9665100E+01 -0.2568960E-01  0.8334942E-01 -0.2439181E+01  0.6361949E-01  0.5384873E-01
 -0.3865100E+01  0.9331180E+01 -0.2568960E-01  0.7313396E-01 -0.2779658E+01  0.6839586E-01  0.2589560E-01
 -0.4761110E+01  0.8907400E+01 -0.2568960E-01  0.7422485E-01  0.3125342E+01  0.7421505E-01 -0.1206124E-02
 -0.5611260E+01  0.8397840E+01 -0.2568960E-01  0.8566949E-01  0.2812115E+01  0.8106145E-01 -0.2771825E-01
 -0.6407370E+01  0.7807410E+01 -0.2568960E-01  0.1033018E+00  0.2600990E+01  0.8857083E-01 -0.5316454E-01
 -0.7141780E+01  0.7141780E+01 -0.2568960E-01  0.1230372E+00  0.2470283E+01  0.9633906E-01 -0.7653067E-01
 -0.7807410E+01  0.6407370E+01 -0.2568960E-01  0.1430420E+00  0.2388048E+01  0.1043159E+00 -0.9787337E-01
 -0.8397840E+01  0.5611260E+01 -0.2568960E-01  0.1626639E+00  0.2334194E+01  0.1124627E+00 -0.1175232E+00
 -0.8907410E+01  0.4761110E+01 -0.2568960E-01  0.1812354E+00  0.2297019E+01  0.1203494E+00 -0.1355076E+00
 -0.9331180E+01  0.3865100E+01 -0.2568960E-01  0.1974848E+00  0.2272420E+01  0.1274683E+00 -0.1508379E+00
 -0.9665100E+01  0.2931880E+01 -0.2568960E-01  0.2112290E+00  0.2256681E+01  0.1337835E+00 -0.1634615E+00
 -0.9905930E+01  0.1970410E+01 -0.2568960E-01  0.2226525E+00  0.2246526E+01  0.1392617E+00 -0.1737248E+00
 -0.1005140E+02  0.9899730E+00 -0.2568960E-01  0.2319304E+00  0.2238789E+01  0.1436603E+00 -0.1820808E+00
 -0.1010000E+02 -0.8829700E-06 -0.2568960E-01  0.2381571E+00  0.2234073E+01  0.1466337E+00 -0.1876628E+00
 -0.1005140E+02 -0.9899740E+00 -0.2568960E-01  0.2411592E+00  0.2232430E+01  0.1481699E+00 -0.1902720E+00
 -0.9905930E+01 -0.1970410E+01 -0.2568960E-01  0.2411578E+00  0.2232900E+01  0.1482583E+00 -0.1902014E+00
 -0.9665100E+01 -0.2931880E+01 -0.2568960E-01  0.2387891E+00  0.2233915E+01  0.1469932E+00 -0.1881840E+00
 -0.9331180E+01 -0.3865100E+01 -0.2568960E-01  0.2334929E+00  0.2237269E+01  0.1443494E+00 -0.1835270E+00
 -0.8907400E+01 -0.4761110E+01 -0.2568960E-01  0.2250502E+00  0.2244160E+01  0.1403456E+00 -0.1759281E+00
 -0.8397840E+01 -0.5611260E+01 -0.2568960E-01  0.2136123E+00  0.2254883E+01  0.1349955E+00 -0.1655489E+00
 -0.7807400E+01 -0.6407370E+01 -0.2568960E-01  0.2001547E+00  0.2269197E+01  0.1286983E+00 -0.1532927E+00
 -0.7141780E+01 -0.7141780E+01 -0.2568960E-01  0.1846121E+00  0.2290927E+01  0.1217485E+00 -0.1387765E+00
 -0.6407370E+01 -0.7807410E+01 -0.2568960E-01  0.1668417E+00  0.2324549E+01  0.1141830E+00 -0.1216486E+00
 -0.5611260E+01 -0.8397850E+01 -0.2568960E-01  0.1470987E+00  0.2375897E+01  0.1060436E+00 -0.1019451E+00
 -0.4761110E+01 -0.8907410E+01 -0.2568960E-01  0.1267969E+00  0.2452139E+01  0.9783573E-01 -0.8065748E-01
 -0.3865100E+01 -0.9331190E+01 -0.2568960E-01  0.1069995E+00  0.2570189E+01  0.9000183E-01 -0.5786672E-01
 -0.2931870E+01 -0.9665100E+01 -0.2568960E-01  0.8902021E-01  0.2758762E+01  0.8257614E-01 -0.3325327E-01
 -0.1970410E+01 -0.9905930E+01 -0.2568960E-01  0.7590612E-01  0.3052823E+01  0.7560725E-01 -0.6729310E-02
 -0.9899710E+00 -0.1005140E+02 -0.2568960E-01  0.7246659E-01 -0.2852168E+01  0.6945257E-01  0.2068205E-01
  0.1204410E-06 -0.1010000E+02 -0.2568960E-01  0.8059824E-01 -0.2497065E+01  0.6442890E-01  0.4842513E-01
  0.9899760E+00 -0.1005140E+02 -0.2568960E-01  0.9775242E-01 -0.2238757E+01  0.6054650E-01  0.7674410E-01
  0.1970410E+01 -0.9905930E+01 -0.2568960E-01  0.1205845E+00 -0.2070999E+01  0.5783274E-01  0.1058112E+00
  0.2931880E+01 -0.9665100E+01 -0.2568960E-01  0.1460685E+00 -0.1966523E+01  0.5630631E-01  0.1347798E+00
  0.3865100E+01 -0.9331180E+01 -0.2568960E-01  0.1720970E+00 -0.1902049E+01  0.5597072E-01  0.1627410E+00
  0.4761110E+01 -0.8907410E+01 -0.2568960E-01  0.1981707E+00 -0.1861520E+01  0.5680475E-01  0.1898548E+00
  0.5611260E+01 -0.8397840E+01 -0.2568960E-01  0.2242306E+00 -0.1836118E+01  0.5879766E-01  0.2163844E+00
  0.6407370E+01 -0.7807410E+01 -0.2568960E-01  0.2495810E+00 -0.1820378E+01  0.6164622E-01  0.2418479E+00
  0.7141780E+01 -0.7141780E+01 -0.2568960E-01  0.2730958E+00 -0.1811316E+01  0.6505343E-01  0.2652346E+00
  0.7807410E+01 -0.6407370E+01 -0.2568960E-01  0.2947861E+00 -0.1807021E+01  0.6898978E-01  0.2865995E+00
  0.8397840E+01 -0.5611260E+01 -0.2568960E-01  0.3149487E+00 -0.1806051E+01  0.7341164E-01  0.3062735E+00
  0.8907410E+01 -0.4761110E+01 -0.2568960E-01  0.3335072E+00 -0.1806587E+01  0.7791128E-01  0.3242790E+00
  0.9331180E+01 -0.3865100E+01 -0.2568960E-01  0.3494088E+00 -0.1807938E+01  0.8208483E-01  0.3396301E+00
  0.9665100E+01 -0.2931870E+01 -0.2568960E-01  0.3625992E+00 -0.1810026E+01  0.8591945E-01  0.3522727E+00
  0.9905930E+01 -0.1970410E+01 -0.2568960E-01  0.3734056E+00 -0.1812475E+01  0.8936831E-01  0.3625535E+00
  0.1005140E+02 -0.9899690E+00 -0.2568960E-01  0.3822014E+00 -0.1814352E+01  0.9216963E-01  0.3709214E+00
  0.1010000E+02  0.0000000E+00 -0.1027320E+00  0.3870363E+00 -0.1815650E+01  0.9382311E-01  0.3754921E+00
  0.1005140E+02  0.9899730E+00 -0.1027320E+00  0.3898429E+00 -0.1816487E+01  0.9482007E-01  0.3781358E+00
  0.9905930E+01  0.1970410E+01 -0.1027320E+00  0.3897365E+00 -0.1816697E+01  0.9487363E-01  0.3780127E+00
  0.9665100E+01  0.2931880E+01 -0.1027320E+00  0.3876348E+00 -0.1815886E+01  0.9405695E-01  0.3760506E+00
  0.9331180E+01  0.3865100E+01 -0.1027320E+00  0.3826730E+00 -0.1814551E+01  0.9235755E-01  0.3713606E+00
  0.8907400E+01  0.4761110E+01 -0.1027320E+00  0.3747303E+00 -0.1812894E+01  0.8983785E-01  0.3638021E+00
  0.8397840E+01  0.5611260E+01 -0.1027320E+00  0.3638148E+00 -0.1810781E+01  0.8647425E-01  0.3533885E+00
  0.7807410E+01  0.6407370E+01 -0.1027320E+00  0.3510534E+00 -0.1808304E+01  0.8259615E-01  0.3411984E+00
  0.7141780E+01  0.7141780E+01 -0.1027320E+00  0.3359597E+00 -0.1806576E+01  0.7848066E-01  0.3266645E+00
  0.6407370E+01  0.7807410E+01 -0.1027320E+00  0.3183483E+00 -0.1806014E+01  0.7419259E-01  0.3095821E+00
  0.5611260E+01  0.8397840E+01 -0.1027320E+00  0.2981515E+00 -0.1806949E+01  0.6975672E-01  0.2898764E+00
  0.4761110E+01  0.8907410E+01 -0.1027320E+00  0.2765495E+00 -0.1810143E+01  0.6556118E-01  0.2686659E+00
  0.3865100E+01  0.9331180E+01 -0.1027320E+00  0.2535849E+00 -0.1817865E+01  0.6201753E-01  0.2458844E+00
  0.2931870E+01  0.9665100E+01 -0.1027320E+00  0.2290947E+00 -0.1831985E+01  0.5915898E-01  0.2213247E+00
  0.1970410E+01  0.9905930E+01 -0.1027320E+00  0.2030206E+00 -0.1855585E+01  0.5703960E-01  0.1948431E+00
  0.9899730E+00  0.1005140E+02 -0.1027320E+00  0.1765895E+00 -0.1892728E+01  0.5587285E-01  0.1675174E+00
 -0.4414850E-06  0.1010000E+02 -0.1027320E+00  0.1505927E+00 -0.1951365E+01  0.5593747E-01  0.1398183E+00
 -0.9899740E+00  0.1005140E+02 -0.1027320E+00  0.1253776E+00 -0.2044674E+01  0.5721485E-01  0.1115617E+00
 -0.1970410E+01  0.9905930E+01 -0.1027320E+00  0.1019301E+00 -0.2197118E+01  0.5974824E-01  0.8258270E-01
 -0.2931880E+01  0.9665100E+01 -0.1027320E+00  0.8310474E-01 -0.2439059E+01  0.6342615E-01  0.5369842E-01
 -0.3865100E+01  0.9331180E+01 -0.1027320E+00  0.7292039E-01 -0.2779745E+01  0.6819837E-01  0.2581406E-01
 -0.4761110E+01  0.8907400E+01 -0.1027320E+00  0.7401214E-01  0.3124861E+01  0.7400178E-01 -0.1238283E-02
 -0.5611260E+01  0.8397840E+01 -0.1027320E+00  0.8543319E-01  0.2812032E+01  0.8083557E-01 -0.2764849E-01
 -0.6407370E+01  0.7807410E+01 -0.1027320E+00  0.1030241E+00  0.2600726E+01  0.8831872E-01 -0.5304496E-01
 -0.7141780E+01  0.7141780E+01 -0.1027320E+00  0.1227107E+00  0.2470169E+01  0.9607476E-01 -0.7633846E-01
 -0.7807410E+01  0.6407370E+01 -0.1027320E+00  0.1426909E+00  0.2387822E+01  0.1040379E+00 -0.9765658E-01
 -0.8397840E+01  0.5611260E+01 -0.1027320E+00  0.1622256E+00  0.2334191E+01  0.1121592E+00 -0.1172069E+00
 -0.8907410E+01  0.4761110E+01 -0.1027320E+00  0.1807780E+00  0.2296892E+01  0.1200284E+00 -0.1351809E+00
 -0.9331180E+01  0.3865100E+01 -0.1027320E+00  0.1969679E+00  0.2272398E+01  0.1271313E+00 -0.1504459E+00
 -0.9665100E+01  0.2931880E+01 -0.1027320E+00  0.2107111E+00  0.2256593E+01  0.1334411E+00 -0.1630725E+00
 -0.9905930E+01  0.1970410E+01 -0.1027320E+00  0.2220542E+00  0.2246557E+01  0.1388928E+00 -0.1732538E+00
 -0.1005140E+02  0.9899730E+00 -0.1027320E+00  0.2313536E+00  0.2238726E+01  0.1432915E+00 -0.1816370E+00
 -0.1010000E+02 -0.8829700E-06 -0.1027320E+00  0.2375344E+00  0.2234082E+01  0.1462521E+00 -0.1871708E+00
 -0.1005140E+02 -0.9899740E+00 -0.1027320E+00  0.2405635E+00  0.2232378E+01  0.1477940E+00 -0.1898097E+00
 -0.9905930E+01 -0.1970410E+01 -0.1027320E+00  0.2405101E+00  0.2232938E+01  0.1478673E+00 -0.1896850E+00
 -0.9665100E+01 -0.2931880E+01 -0.1027320E+00  0.2382003E+00  0.2233860E+01  0.1466205E+00 -0.1877280E+00
 -0.9331180E+01 -0.3865100E+01 -0.1027320E+00  0.2328826E+00  0.2237277E+01  0.1439735E+00 -0.1830463E+00
 -0.8907400E+01 -0.4761110E+01 -0.1027320E+00  0.2244895E+00  0.2244088E+01  0.1399834E+00 -0.1754998E+00
 -0.8397840E+01 -0.5611260E+01 -0.1027320E+00  0.2130384E+00  0.2254907E+01  0.1346369E+00 -0.1651007E+00
 -0.7807400E+01 -0.6407370E+01 -0.1027320E+00  0.1996649E+00  0.2269093E+01  0.1283674E+00 -0.1529310E+00
 -0.7141780E+01 -0.7141780E+01 -0.1027320E+00  0.1841284E+00  0.2290893E+01  0.1214248E+00 -0.1384171E+00
 -0.6407370E+01 -0.7807410E+01 -0.1027320E+00  0.1664181E+00  0.2324401E+01  0.1138752E+00 -0.1213566E+00
 -0.5611260E+01 -0.8397850E+01 -0.1027320E+00  0.1467017E+00  0.2375880E+01  0.1057556E+00 -0.1016717E+00
 -0.4761110E+01 -0.8907410E+01 -0.1027320E+00  0.1264837E+00  0.2451861E+01  0.9757166E-01 -0.8048544E-01
 -0.3865100E+01 -0.9331190E+01 -0.1027320E+00  0.1067128E+00  0.2570045E+01  0.8975238E-01 -0.5772457E-01
 -0.2931870E+01 -0.9665100E+01 -0.1027320E+00  0.8877297E-01  0.2758482E+01  0.8233751E-01 -0.3318395E-01
 -0.1970410E+01 -0.9905930E+01 -0.1027320E+00  0.7569365E-01  0.3052736E+01  0.7539503E-01 -0.6717057E-02
 -0.9899710E+00 -0.1005140E+02 -0.1027320E+00  0.7224692E-01 -0.2852535E+01  0.6924961E-01  0.2059391E-01
  0.1204410E-06 -0.1010000E+02 -0.1027320E+00  0.8036310E-01 -0.2497069E+01  0.6424116E-01  0.4828355E-01
  0.9899760E+00 -0.1005140E+02 -0.1027320E+00  0.9747432E-01 -0.2238588E+01  0.6036134E-01  0.7653595E-01
  0.1970410E+01 -0.9905930E+01 -0.1027320E+00  0.1202457E+00 -0.2070962E+01  0.5766632E-01  0.1055160E+00
  0.2931880E+01 -0.9665100E+01 -0.1027320E+00  0.1456537E+00 -0.1966427E+01  0.5613348E-01  0.1344025E+00
  0.3865100E+01 -0.9331180E+01 -0.1027320E+00  0.1716217E+00 -0.1901992E+01  0.5580694E-01  0.1622948E+00
  0.4761110E+01 -0.8907410E+01 -0.1027320E+00  0.1976480E+00 -0.1861426E+01  0.5663717E-01  0.1893594E+00
  0.5611260E+01 -0.8397840E+01 -0.1027320E+00  0.2236109E+00 -0.1836106E+01  0.5863269E-01  0.2157871E+00
  0.6407370E+01 -0.7807410E+01 -0.1027320E+00  0.2489095E+00 -0.1820321E+01  0.6146652E-01  0.2412007E+00
  0.7141780E+01 -0.7141780E+01 -0.1027320E+00  0.2723537E+00 -0.1811307E+01  0.6487431E-01  0.2645144E+00
  0.7807410E+01 -0.6407370E+01 -0.1027320E+00  0.2940187E+00 -0.1807003E+01  0.6880514E-01  0.2858546E+00
  0.8397840E+01 -0.5611260E+01 -0.1027320E+00  0.3140822E+00 -0.1806070E+01  0.7321547E-01  0.3054295E+00
  0.8907410E+01 -0.4761110E+01 -0.1027320E+00  0.3326273E+00 -0.1806581E+01  0.7770385E-01  0.3234239E+00
  0.9331180E+01 -0.3865100E+01 -0.1027320E+00  0.3484642E+00 -0.1807962E+01  0.8187126E-01  0.3387099E+00
  0.9665100E+01 -0.2931870E+01 -0.1027320E+00  0.3616572E+00 -0.1810048E+01  0.8570411E-01  0.3513556E+00
  0.9905930E+01 -0.1970410E+01 -0.1027320E+00  0.3723802E+00 -0.1812512E+01  0.8913632E-01  0.3615546E+00
  0.1005140E+02 -0.9899690E+00 -0.1027320E+00  0.3812019E+00 -0.1814378E+01  0.9193834E-01  0.3699490E+00
  0.1010000E+02  0.0000000E+00 -0.2310450E+00  0.3853463E+00 -0.1815640E+01  0.9340969E-01  0.3738535E+00
  0.1005140E+02  0.9899730E+00 -0.2310450E+00  0.3881504E+00 -0.1816477E+01  0.9440456E-01  0.3764951E+00
  0.9905930E+01  0.1970410E+01 -0.2310450E+00  0.3881143E+00 -0.1816669E+01  0.9446831E-01  0.3764419E+00
  0.9665100E+01  0.2931880E+01 -0.2310450E+00  0.3859532E+00 -0.1815876E+01  0.9364533E-01  0.3744201E+00
  0.9331180E+01  0.3865100E+01 -0.2310450E+00  0.3810017E+00 -0.1814541E+01  0.9195025E-01  0.3697397E+00
  0.8907400E+01  0.4761110E+01 -0.2310450E+00  0.3730945E+00 -0.1812872E+01  0.8943757E-01  0.3622160E+00
  0.8397840E+01  0.5611260E+01 -0.2310450E+00  0.3622959E+00 -0.1810740E+01  0.8609885E-01  0.3519166E+00
  0.7807410E+01  0.6407370E+01 -0.2310450E+00  0.3495341E+00 -0.1808293E+01  0.8223512E-01  0.3397227E+00
  0.7141780E+01  0.7141780E+01 -0.2310450E+00  0.3344868E+00 -0.1806557E+01  0.7813025E-01  0.3252339E+00
  0.6407370E+01  0.7807410E+01 -0.2310450E+00  0.3169437E+00 -0.1805975E+01  0.7385316E-01  0.3082191E+00
  0.5611260E+01  0.8397840E+01 -0.2310450E+00  0.2968929E+00 -0.1806872E+01  0.6943998E-01  0.2886581E+00
  0.4761110E+01  0.8907410E+01 -0.2310450E+00  0.2753510E+00 -0.1810115E+01  0.6526951E-01  0.2675034E+00
  0.3865100E+01  0.9331180E+01 -0.2310450E+00  0.2524628E+00 -0.1817829E+01  0.6173424E-01  0.2447986E+00
  0.2931870E+01  0.9665100E+01 -0.2310450E+00  0.2280621E+00 -0.1831933E+01  0.5888093E-01  0.2203301E+00
  0.1970410E+01  0.9905930E+01 -0.2310450E+00  0.2021379E+00 -0.1855447E+01  0.5676491E-01  0.1940038E+00
  0.9899730E+00  0.1005140E+02 -0.2310450E+00  0.1758164E+00 -0.1892648E+01  0.5561493E-01  0.1667884E+00
 -0.4414850E-06  0.1010000E+02 -0.2310450E+00  0.1499088E+00 -0.1951321E+01  0.5567731E-01  0.1391858E+00
 -0.9899740E+00  0.1005140E+02 -0.2310450E+00  0.1247819E+00 -0.2044712E+01  0.5694716E-01  0.1110294E+00
 -0.1970410E+01  0.9905930E+01 -0.2310450E+00  0.1014422E+00 -0.2197060E+01  0.5945746E-01  0.8219085E-01
 -0.2931880E+01  0.9665100E+01 -0.2310450E+00  0.8271872E-01 -0.2439003E+01  0.6312854E-01  0.5345254E-01
 -0.3865100E+01  0.9331180E+01 -0.2310450E+00  0.7257484E-01 -0.2780092E+01  0.6788411E-01  0.2566816E-01
 -0.4761110E+01  0.8907400E+01 -0.2310450E+00  0.7367820E-01  0.3124073E+01  0.7366689E-01 -0.1290769E-02
 -0.5611260E+01  0.8397840E+01 -0.2310450E+00  0.8506268E-01  0.2811135E+01  0.8046027E-01 -0.2760081E-01
 -0.6407370E+01  0.7807410E+01 -0.2310450E+00  0.1025698E+00  0.2600375E+01  0.8791070E-01 -0.5284186E-01
 -0.7141780E+01  0.7141780E+01 -0.2310450E+00  0.1221908E+00  0.2469821E+01  0.9564126E-01 -0.7604833E-01
 -0.7807410E+01  0.6407370E+01 -0.2310450E+00  0.1421085E+00  0.2387464E+01  0.1035784E+00 -0.9729519E-01
 -0.8397840E+01  0.5611260E+01 -0.2310450E+00  0.1615894E+00  0.2333702E+01  0.1116622E+00 -0.1168019E+00
 -0.8907410E+01  0.4761110E+01 -0.2310450E+00  0.1800103E+00  0.2296651E+01  0.1194864E+00 -0.1346355E+00
 -0.9331180E+01  0.3865100E+01 -0.2310450E+00  0.1961397E+00  0.2272192E+01  0.1265660E+00 -0.1498393E+00
 -0.9665100E+01  0.2931880E+01 -0.2310450E+00  0.2098419E+00  0.2256382E+01  0.1328564E+00 -0.1624278E+00
 -0.9905930E+01  0.1970410E+01 -0.2310450E+00  0.2211879E+00  0.2246219E+01  0.1382927E+00 -0.1726246E+00
 -0.1005140E+02  0.9899730E+00 -0.2310450E+00  0.2303822E+00  0.2238536E+01  0.1426555E+00 -0.1809015E+00
 -0.1010000E+02 -0.8829700E-06 -0.2310450E+00  0.2365351E+00  0.2233915E+01  0.1456057E+00 -0.1864077E+00
 -0.1005140E+02 -0.9899740E+00 -0.2310450E+00  0.2395606E+00  0.2232199E+01  0.1471439E+00 -0.1890448E+00
 -0.9905930E+01 -0.1970410E+01 -0.2310450E+00  0.2395717E+00  0.2232634E+01  0.1472329E+00 -0.1889896E+00
 -0.9665100E+01 -0.2931880E+01 -0.2310450E+00  0.2372091E+00  0.2233678E+01  0.1459763E+00 -0.1869735E+00
 -0.9331180E+01 -0.3865100E+01 -0.2310450E+00  0.2319028E+00  0.2237105E+01  0.1433365E+00 -0.1823008E+00
 -0.8907400E+01 -0.4761110E+01 -0.2310450E+00  0.2235451E+00  0.2243892E+01  0.1393602E+00 -0.1747889E+00
 -0.8397840E+01 -0.5611260E+01 -0.2310450E+00  0.2122068E+00  0.2254554E+01  0.1340532E+00 -0.1645037E+00
 -0.7807400E+01 -0.6407370E+01 -0.2310450E+00  0.1988427E+00  0.2268867E+01  0.1278044E+00 -0.1523301E+00
 -0.7141780E+01 -0.7141780E+01 -0.2310450E+00  0.1833541E+00  0.2290672E+01  0.1208837E+00 -0.1378618E+00
 -0.6407370E+01 -0.7807410E+01 -0.2310450E+00  0.1657087E+00  0.2324142E+01  0.1133585E+00 -0.1208685E+00
 -0.5611260E+01 -0.8397850E+01 -0.2310450E+00  0.1461236E+00  0.2375335E+01  0.1052837E+00 -0.1013285E+00
 -0.4761110E+01 -0.8907410E+01 -0.2310450E+00  0.1259676E+00  0.2451437E+01  0.9713948E-01 -0.8019818E-01
 -0.3865100E+01 -0.9331190E+01 -0.2310450E+00  0.1062569E+00  0.2569644E+01  0.8934592E-01 -0.5751380E-01
 -0.2931870E+01 -0.9665100E+01 -0.2310450E+00  0.8837365E-01  0.2758124E+01  0.8195530E-01 -0.3306405E-01
 -0.1970410E+01 -0.9905930E+01 -0.2310450E+00  0.7534438E-01  0.3051846E+01  0.7504116E-01 -0.6752809E-02
 -0.9899710E+00 -0.1005140E+02 -0.2310450E+00  0.7190315E-01 -0.2853225E+01  0.6893421E-01  0.2044840E-01
  0.1204410E-06 -0.1010000E+02 -0.2310450E+00  0.7998022E-01 -0.2497254E+01  0.6394396E-01  0.4804170E-01
  0.9899760E+00 -0.1005140E+02 -0.2310450E+00  0.9702984E-01 -0.2238482E+01  0.6007799E-01  0.7619335E-01
  0.1970410E+01 -0.9905930E+01 -0.2310450E+00  0.1196867E+00 -0.2070833E+01  0.5738477E-01  0.1050329E+00
  0.2931880E+01 -0.9665100E+01 -0.2310450E+00  0.1449716E+00 -0.1966419E+01  0.5586957E-01  0.1337736E+00
  0.3865100E+01 -0.9331180E+01 -0.2310450E+00  0.1708484E+00 -0.1901945E+01  0.5554785E-01  0.1615661E+00
  0.4761110E+01 -0.8907410E+01 -0.2310450E+00  0.1967856E+00 -0.1861360E+01  0.5637764E-01  0.1885368E+00
  0.5611260E+01 -0.8397840E+01 -0.2310450E+00  0.2226471E+00 -0.1835983E+01  0.5835348E-01  0.2148641E+00
  0.6407370E+01 -0.7807410E+01 -0.2310450E+00  0.2477937E+00 -0.1820270E+01  0.6117879E-01  0.2401226E+00
  0.7141780E+01 -0.7141780E+01 -0.2310450E+00  0.2711518E+00 -0.1811275E+01  0.6457957E-01  0.2633492E+00
  0.7807410E+01 -0.6407370E+01 -0.2310450E+00  0.2927454E+00 -0.1806980E+01  0.6850078E-01  0.2846182E+00
  0.8397840E+01 -0.5611260E+01 -0.2310450E+00  0.3127600E+00 -0.1806003E+01  0.7288674E-01  0.3041486E+00
  0.8907410E+01 -0.4761110E+01 -0.2310450E+00  0.3311632E+00 -0.1806545E+01  0.7735011E-01  0.3220032E+00
  0.9331180E+01 -0.3865100E+01 -0.2310450E+00  0.3469384E+00 -0.1807945E+01  0.8150699E-01  0.3372282E+00
  0.9665100E+01 -0.2931870E+01 -0.2310450E+00  0.3600914E+00 -0.1810041E+01  0.8533030E-01  0.3498350E+00
  0.9905930E+01 -0.1970410E+01 -0.2310450E+00  0.3708265E+00 -0.1812476E+01  0.8875138E-01  0.3600493E+00
  0.1005140E+02 -0.9899690E+00 -0.2310450E+00  0.3795396E+00 -0.1814359E+01  0.9153030E-01  0.3683375E+00
  0.1010000E+02  0.0000000E+00 -0.4105000E+00  0.3830195E+00 -0.1815622E+01  0.9283891E-01  0.3715977E+00
  0.1005140E+02  0.9899730E+00 -0.4105000E+00  0.3857784E+00 -0.1816466E+01  0.9382376E-01  0.3741953E+00
  0.9905930E+01  0.1970410E+01 -0.4105000E+00  0.3858180E+00 -0.1816639E+01  0.9389784E-01  0.3742175E+00
  0.9665100E+01  0.2931880E+01 -0.4105000E+00  0.3835962E+00 -0.1815869E+01  0.9307057E-01  0.3721343E+00
  0.9331180E+01  0.3865100E+01 -0.4105000E+00  0.3787003E+00 -0.1814522E+01  0.9138791E-01  0.3675081E+00
  0.8907400E+01  0.4761110E+01 -0.4105000E+00  0.3708024E+00 -0.1812850E+01  0.8888038E-01  0.3599927E+00
  0.8397840E+01  0.5611260E+01 -0.4105000E+00  0.3601466E+00 -0.1810700E+01  0.8557421E-01  0.3498323E+00
  0.7807410E+01  0.6407370E+01 -0.4105000E+00  0.3474042E+00 -0.1808294E+01  0.8173420E-01  0.3376525E+00
  0.7141780E+01  0.7141780E+01 -0.4105000E+00  0.3324585E+00 -0.1806530E+01  0.7764778E-01  0.3232638E+00
  0.6407370E+01  0.7807410E+01 -0.4105000E+00  0.3149781E+00 -0.1805946E+01  0.7338629E-01  0.3063097E+00
  0.5611260E+01  0.8397840E+01 -0.4105000E+00  0.2951168E+00 -0.1806809E+01  0.6900635E-01  0.2869356E+00
  0.4761110E+01  0.8907410E+01 -0.4105000E+00  0.2736732E+00 -0.1810113E+01  0.6487105E-01  0.2658736E+00
  0.3865100E+01  0.9331180E+01 -0.4105000E+00  0.2509157E+00 -0.1817788E+01  0.6134590E-01  0.2433010E+00
  0.2931870E+01  0.9665100E+01 -0.4105000E+00  0.2266222E+00 -0.1831918E+01  0.5850582E-01  0.2189399E+00
  0.1970410E+01  0.9905930E+01 -0.4105000E+00  0.2009007E+00 -0.1855349E+01  0.5639844E-01  0.1928219E+00
  0.9899730E+00  0.1005140E+02 -0.4105000E+00  0.1747376E+00 -0.1892620E+01  0.5526902E-01  0.1657666E+00
 -0.4414850E-06  0.1010000E+02 -0.4105000E+00  0.1489630E+00 -0.1951288E+01  0.5532143E-01  0.1383095E+00
 -0.9899740E+00  0.1005140E+02 -0.4105000E+00  0.1239608E+00 -0.2044857E+01  0.5658848E-01  0.1102906E+00
 -0.1970410E+01  0.9905930E+01 -0.4105000E+00  0.1007756E+00 -0.2197110E+01  0.5907083E-01  0.8164776E-01
 -0.2931880E+01  0.9665100E+01 -0.4105000E+00  0.8219234E-01 -0.2439026E+01  0.6272807E-01  0.5311092E-01
 -0.3865100E+01  0.9331180E+01 -0.4105000E+00  0.7209831E-01 -0.2780686E+01  0.6745352E-01  0.2545954E-01
 -0.4761110E+01  0.8907400E+01 -0.4105000E+00  0.7322477E-01  0.3123092E+01  0.7321224E-01 -0.1354599E-02
 -0.5611260E+01  0.8397840E+01 -0.4105000E+00  0.8455355E-01  0.2810117E+01  0.7995072E-01 -0.2751700E-01
 -0.6407370E+01  0.7807410E+01 -0.4105000E+00  0.1019421E+00  0.2600002E+01  0.8735315E-01 -0.5255113E-01
 -0.7141780E+01  0.7141780E+01 -0.4105000E+00  0.1214815E+00  0.2469278E+01  0.9504496E-01 -0.7565854E-01