 VARIABLES="X" "Y" "Z" "abs(eta) (m)" "angle(phi) (rad)" "PRE1" "PRE2"
ZONE N=   3200 ,E =    3136 ,F=FEPOINT,ET=QUADRILATERAL
  0.1010000E+02  0.0000000E+00  0.0000000E+00  0.4231332E+00 -0.1754007E+01  0.7708948E-01  0.4160516E+00
  0.1005140E+02  0.9899730E+00  0.0000000E+00  0.4018593E+00 -0.1750089E+01  0.7166499E-01  0.3954176E+00
  0.9905930E+01  0.1970410E+01  0.0000000E+00  0.3773341E+00 -0.1747308E+01  0.6625876E-01  0.3714711E+00
  0.9665100E+01  0.2931880E+01  0.0000000E+00  0.3507397E+00 -0.1746436E+01  0.6128738E-01  0.3453436E+00
  0.9331180E+01  0.3865100E+01  0.0000000E+00  0.3218780E+00 -0.1749579E+01  0.5724025E-01  0.3167475E+00
  0.8907400E+01  0.4761110E+01  0.0000000E+00  0.2914607E+00 -0.1757814E+01  0.5419109E-01  0.2863786E+00
  0.8397840E+01  0.5611260E+01  0.0000000E+00  0.2590716E+00 -0.1774646E+01  0.5244671E-01  0.2537074E+00
  0.7807410E+01  0.6407370E+01  0.0000000E+00  0.2258923E+00 -0.1803682E+01  0.5213278E-01  0.2197942E+00
  0.7141780E+01  0.7141780E+01  0.0000000E+00  0.1925838E+00 -0.1853223E+01  0.5367054E-01  0.1849540E+00
  0.6407370E+01  0.7807410E+01  0.0000000E+00  0.1599925E+00 -0.1934264E+01  0.5688012E-01  0.1495401E+00
  0.5611260E+01  0.8397840E+01  0.0000000E+00  0.1293836E+00 -0.2070806E+01  0.6203090E-01  0.1135442E+00
  0.4761110E+01  0.8907410E+01  0.0000000E+00  0.1038058E+00 -0.2295849E+01  0.6884138E-01  0.7769492E-01
  0.3865100E+01  0.9331180E+01  0.0000000E+00  0.8843011E-01 -0.2635910E+01  0.7736254E-01  0.4283597E-01
  0.2931870E+01  0.9665100E+01  0.0000000E+00  0.8771016E-01 -0.3040752E+01  0.8726458E-01  0.8829792E-02
  0.1970410E+01  0.9905930E+01  0.0000000E+00  0.1014293E+00  0.2903928E+01  0.9857818E-01 -0.2387988E-01
  0.9899730E+00  0.1005140E+02  0.0000000E+00  0.1237090E+00  0.2680011E+01  0.1107628E+00 -0.5509563E-01
 -0.4414850E-06  0.1010000E+02  0.0000000E+00  0.1491514E+00  0.2545490E+01  0.1234272E+00 -0.8373687E-01
 -0.9899740E+00  0.1005140E+02  0.0000000E+00  0.1754347E+00  0.2460720E+01  0.1363170E+00 -0.1104311E+00
 -0.1970410E+01  0.9905930E+01  0.0000000E+00  0.2007973E+00  0.2408130E+01  0.1491644E+00 -0.1344230E+00
 -0.2931880E+01  0.9665100E+01  0.0000000E+00  0.2246467E+00  0.2373126E+01  0.1615158E+00 -0.1561370E+00
 -0.3865100E+01  0.9331180E+01  0.0000000E+00  0.2454644E+00  0.2351305E+01  0.1727188E+00 -0.1744161E+00
 -0.4761110E+01  0.8907400E+01  0.0000000E+00  0.2638284E+00  0.2336191E+01  0.1827861E+00 -0.1902490E+00
 -0.5611260E+01  0.8397840E+01  0.0000000E+00  0.2786743E+00  0.2327213E+01  0.1912597E+00 -0.2026798E+00
 -0.6407370E+01  0.7807410E+01  0.0000000E+00  0.2905402E+00  0.2320848E+01  0.1980546E+00 -0.2125748E+00
 -0.7141780E+01  0.7141780E+01  0.0000000E+00  0.2981835E+00  0.2317696E+01  0.2025761E+00 -0.2188066E+00
 -0.7807410E+01  0.6407370E+01  0.0000000E+00  0.3026091E+00  0.2315647E+01  0.2051271E+00 -0.2224749E+00
 -0.8397840E+01  0.5611260E+01  0.0000000E+00  0.3027207E+00  0.2315885E+01  0.2052559E+00 -0.2225080E+00
 -0.8907410E+01  0.4761110E+01  0.0000000E+00  0.2995478E+00  0.2316841E+01  0.2033149E+00 -0.2199816E+00
 -0.9331180E+01  0.3865100E+01  0.0000000E+00  0.2921343E+00  0.2320340E+01  0.1990325E+00 -0.2138423E+00
 -0.9665100E+01  0.2931880E+01  0.0000000E+00  0.2815848E+00  0.2325372E+01  0.1928798E+00 -0.2051521E+00
 -0.9905930E+01  0.1970410E+01  0.0000000E+00  0.2669318E+00  0.2334455E+01  0.1846017E+00 -0.1928077E+00
 -0.1005140E+02  0.9899730E+00  0.0000000E+00  0.2494674E+00  0.2347357E+01  0.1748342E+00 -0.1779521E+00
 -0.1010000E+02 -0.8829700E-06  0.0000000E+00  0.2287921E+00  0.2368428E+01  0.1637474E+00 -0.1597893E+00
 -0.1005140E+02 -0.9899740E+00  0.0000000E+00  0.2059644E+00  0.2399266E+01  0.1517746E+00 -0.1392328E+00
 -0.9905930E+01 -0.1970410E+01  0.0000000E+00  0.1806106E+00  0.2448746E+01  0.1389674E+00 -0.1153614E+00
 -0.9665100E+01 -0.2931880E+01  0.0000000E+00  0.1543972E+00  0.2524765E+01  0.1259445E+00 -0.8931106E-01
 -0.9331180E+01 -0.3865100E+01  0.0000000E+00  0.1284939E+00  0.2648860E+01  0.1132087E+00 -0.6078213E-01
 -0.8907400E+01 -0.4761110E+01  0.0000000E+00  0.1054721E+00  0.2848411E+01  0.1009716E+00 -0.3048142E-01
 -0.8397840E+01 -0.5611260E+01  0.0000000E+00  0.8954629E-01 -0.3117727E+01  0.8952079E-01  0.2136901E-02
 -0.7807400E+01 -0.6407370E+01  0.0000000E+00  0.8697218E-01 -0.2714779E+01  0.7916985E-01  0.3600410E-01
 -0.7141780E+01 -0.7141780E+01  0.0000000E+00  0.9987624E-01 -0.2353432E+01  0.7042780E-01  0.7081799E-01
 -0.6407370E+01 -0.7807410E+01  0.0000000E+00  0.1235965E+00 -0.2107613E+01  0.6320766E-01  0.1062115E+00
 -0.5611260E+01 -0.8397850E+01  0.0000000E+00  0.1535156E+00 -0.1957007E+01  0.5782636E-01  0.1422081E+00
 -0.4761110E+01 -0.8907410E+01  0.0000000E+00  0.1861171E+00 -0.1865957E+01  0.5414034E-01  0.1780685E+00
 -0.3865100E+01 -0.9331190E+01  0.0000000E+00  0.2193010E+00 -0.1811866E+01  0.5235631E-01  0.2129595E+00
 -0.2931870E+01 -0.9665100E+01  0.0000000E+00  0.2524531E+00 -0.1778973E+01  0.5217613E-01  0.2470025E+00
 -0.1970410E+01 -0.9905930E+01  0.0000000E+00  0.2848807E+00 -0.1760551E+01  0.5373362E-01  0.2797673E+00
 -0.9899710E+00 -0.1005140E+02  0.0000000E+00  0.3161452E+00 -0.1750680E+01  0.5656308E-01  0.3110440E+00
  0.1204410E-06 -0.1010000E+02  0.0000000E+00  0.3450979E+00 -0.1746919E+01  0.6046573E-01  0.3397594E+00
  0.9899760E+00 -0.1005140E+02  0.0000000E+00  0.3722698E+00 -0.1746726E+01  0.6515587E-01  0.3665235E+00
  0.1970410E+01 -0.9905930E+01  0.0000000E+00  0.3969072E+00 -0.1749393E+01  0.7050989E-01  0.3905940E+00
  0.2931880E+01 -0.9665100E+01  0.0000000E+00  0.4193388E+00 -0.1753212E+01  0.7607063E-01  0.4123813E+00
  0.3865100E+01 -0.9331180E+01  0.0000000E+00  0.4383573E+00 -0.1757547E+01  0.8138870E-01  0.4307354E+00
  0.4761110E+01 -0.8907410E+01  0.0000000E+00  0.4549061E+00 -0.1761857E+01  0.8638670E-01  0.4466284E+00
  0.5611260E+01 -0.8397840E+01  0.0000000E+00  0.4680035E+00 -0.1765985E+01  0.9077016E-01  0.4591166E+00
  0.6407370E+01 -0.7807410E+01  0.0000000E+00  0.4784531E+00 -0.1769343E+01  0.9437261E-01  0.4690535E+00
  0.7141780E+01 -0.7141780E+01  0.0000000E+00  0.4850723E+00 -0.1771665E+01  0.9678184E-01  0.4753193E+00
  0.7807410E+01 -0.6407370E+01  0.0000000E+00  0.4889557E+00 -0.1772934E+01  0.9816486E-01  0.4790004E+00
  0.8397840E+01 -0.5611260E+01  0.0000000E+00  0.4890049E+00 -0.1773047E+01  0.9822862E-01  0.4790375E+00
  0.8907410E+01 -0.4761110E+01  0.0000000E+00  0.4863034E+00 -0.1771982E+01  0.9717869E-01  0.4764948E+00
  0.9331180E+01 -0.3865100E+01  0.0000000E+00  0.4798062E+00 -0.1769852E+01  0.9487871E-01  0.4703318E+00
  0.9665100E+01 -0.2931870E+01  0.0000000E+00  0.4706049E+00 -0.1766772E+01  0.9163772E-01  0.4615966E+00
  0.9905930E+01 -0.1970410E+01  0.0000000E+00  0.4576112E+00 -0.1762814E+01  0.8733059E-01  0.4492009E+00
  0.1005140E+02 -0.9899690E+00  0.0000000E+00  0.4420288E+00 -0.1758311E+01  0.8240186E-01  0.4342803E+00
  0.1010000E+02  0.0000000E+00 -0.2568960E-01  0.4226873E+00 -0.1754019E+01  0.7701322E-01  0.4156123E+00
  0.1005140E+02  0.9899730E+00 -0.2568960E-01  0.4013731E+00 -0.1750118E+01  0.7158989E-01  0.3949370E+00
  0.9905930E+01  0.1970410E+01 -0.2568960E-01  0.3768523E+00 -0.1747350E+01  0.6618934E-01  0.3709942E+00
  0.9665100E+01  0.2931880E+01 -0.2568960E-01  0.3503157E+00 -0.1746458E+01  0.6122105E-01  0.3449247E+00
  0.9331180E+01  0.3865100E+01 -0.2568960E-01  0.3215350E+00 -0.1749547E+01  0.5716919E-01  0.3164118E+00
  0.8907400E+01  0.4761110E+01 -0.2568960E-01  0.2911144E+00 -0.1757833E+01  0.5413206E-01  0.2860372E+00
  0.8397840E+01  0.5611260E+01 -0.2568960E-01  0.2587521E+00 -0.1774698E+01  0.5239509E-01  0.2533918E+00
  0.7807410E+01  0.6407370E+01 -0.2568960E-01  0.2256251E+00 -0.1803695E+01  0.5207397E-01  0.2195335E+00
  0.7141780E+01  0.7141780E+01 -0.2568960E-01  0.1923684E+00 -0.1853126E+01  0.5359271E-01  0.1847523E+00
  0.6407370E+01  0.7807410E+01 -0.2568960E-01  0.1598110E+00 -0.1934259E+01  0.5681486E-01  0.1493708E+00
  0.5611260E+01  0.8397840E+01 -0.2568960E-01  0.1292446E+00 -0.2070838E+01  0.6196786E-01  0.1134202E+00
  0.4761110E+01  0.8907410E+01 -0.2568960E-01  0.1036917E+00 -0.2295808E+01  0.6876256E-01  0.7761235E-01
  0.3865100E+01  0.9331180E+01 -0.2568960E-01  0.8831257E-01 -0.2635930E+01  0.7726055E-01  0.4277752E-01
  0.2931870E+01  0.9665100E+01 -0.2568960E-01  0.8761107E-01 -0.3040553E+01  0.8716425E-01  0.8837107E-02
  0.1970410E+01  0.9905930E+01 -0.2568960E-01  0.1013090E+00  0.2904290E+01  0.9846989E-01 -0.2381588E-01
  0.9899730E+00  0.1005140E+02 -0.2568960E-01  0.1235592E+00  0.2680177E+01  0.1106377E+00 -0.5501058E-01
 -0.4414850E-06  0.1010000E+02 -0.2568960E-01  0.1489965E+00  0.2545357E+01  0.1232880E+00 -0.8366620E-01
 -0.9899740E+00  0.1005140E+02 -0.2568960E-01  0.1752152E+00  0.2460865E+01  0.1361625E+00 -0.1102732E+00
 -0.1970410E+01  0.9905930E+01 -0.2568960E-01  0.2005254E+00  0.2408355E+01  0.1489927E+00 -0.1342074E+00
 -0.2931880E+01  0.9665100E+01 -0.2568960E-01  0.2243681E+00  0.2373255E+01  0.1613357E+00 -0.1559225E+00
 -0.3865100E+01  0.9331180E+01 -0.2568960E-01  0.2452218E+00  0.2351271E+01  0.1725421E+00 -0.1742496E+00
 -0.4761110E+01  0.8907400E+01 -0.2568960E-01  0.2634995E+00  0.2336313E+01  0.1825814E+00 -0.1899895E+00
 -0.5611260E+01  0.8397840E+01 -0.2568960E-01  0.2782954E+00  0.2327393E+01  0.1910361E+00 -0.2023699E+00
 -0.6407370E+01  0.7807410E+01 -0.2568960E-01  0.2901798E+00  0.2320969E+01  0.1978344E+00 -0.2122872E+00
 -0.7141780E+01  0.7141780E+01 -0.2568960E-01  0.2978917E+00  0.2317697E+01  0.2023779E+00 -0.2185924E+00
 -0.7807410E+01  0.6407370E+01 -0.2568960E-01  0.3022330E+00  0.2315765E+01  0.2048986E+00 -0.2221741E+00
 -0.8397840E+01  0.5611260E+01 -0.2568960E-01  0.3023088E+00  0.2316054E+01  0.2050142E+00 -0.2221707E+00
 -0.8907410E+01  0.4761110E+01 -0.2568960E-01  0.2991751E+00  0.2316960E+01  0.2030881E+00 -0.2196837E+00
 -0.9331180E+01  0.3865100E+01 -0.2568960E-01  0.2918482E+00  0.2320336E+01  0.1988368E+00 -0.2136336E+00
 -0.9665100E+01  0.2931880E+01 -0.2568960E-01  0.2812349E+00  0.2325492E+01  0.1926648E+00 -0.2048741E+00
 -0.9905930E+01  0.1970410E+01 -0.2568960E-01  0.2665688E+00  0.2334642E+01  0.1843866E+00 -0.1925111E+00
 -0.1005140E+02  0.9899730E+00 -0.2568960E-01  0.2491559E+00  0.2347480E+01  0.1746378E+00 -0.1777085E+00
 -0.1010000E+02 -0.8829700E-06 -0.2568960E-01  0.2285655E+00  0.2368382E+01  0.1635779E+00 -0.1596386E+00
 -0.1005140E+02 -0.9899740E+00 -0.2568960E-01  0.2057092E+00  0.2399395E+01  0.1516046E+00 -0.1390407E+00
 -0.9905930E+01 -0.1970410E+01 -0.2568960E-01  0.1803673E+00  0.2448991E+01  0.1388084E+00 -0.1151721E+00
 -0.9665100E+01 -0.2931880E+01 -0.2568960E-01  0.1542047E+00  0.2524923E+01  0.1258015E+00 -0.8917988E-01
 -0.9331180E+01 -0.3865100E+01 -0.2568960E-01  0.1283562E+00  0.2648699E+01  0.1130776E+00 -0.6073520E-01
 -0.8907400E+01 -0.4761110E+01 -0.2568960E-01  0.1053477E+00  0.2848588E+01  0.1008578E+00 -0.3042760E-01
 -0.8397840E+01 -0.5611260E+01 -0.2568960E-01  0.8944973E-01 -0.3117384E+01  0.8942352E-01  0.2165217E-02
 -0.7807400E+01 -0.6407370E+01 -0.2568960E-01  0.8687781E-01 -0.2714623E+01  0.7907832E-01  0.3597738E-01
 -0.7141780E+01 -0.7141780E+01 -0.2568960E-01  0.9974720E-01 -0.2353364E+01  0.7033204E-01  0.7073124E-01
 -0.6407370E+01 -0.7807410E+01 -0.2568960E-01  0.1234579E+00 -0.2107601E+01  0.6313552E-01  0.1060932E+00
 -0.5611260E+01 -0.8397850E+01 -0.2568960E-01  0.1533426E+00 -0.1957055E+01  0.5776806E-01  0.1420451E+00
 -0.4761110E+01 -0.8907410E+01 -0.2568960E-01  0.1859033E+00 -0.1865964E+01  0.5407930E-01  0.1778636E+00
 -0.3865100E+01 -0.9331190E+01 -0.2568960E-01  0.2190600E+00 -0.1811785E+01  0.5228139E-01  0.2127298E+00
 -0.2931870E+01 -0.9665100E+01 -0.2568960E-01  0.2521525E+00 -0.1778988E+01  0.5211771E-01  0.2467076E+00
 -0.1970410E+01 -0.9905930E+01 -0.2568960E-01  0.2845258E+00 -0.1760599E+01  0.5368020E-01  0.2794162E+00
 -0.9899710E+00 -0.1005140E+02 -0.2568960E-01  0.3157677E+00 -0.1750701E+01  0.5650220E-01  0.3106714E+00
  0.1204410E-06 -0.1010000E+02 -0.2568960E-01  0.3447313E+00 -0.1746897E+01  0.6039422E-01  0.3393998E+00
  0.9899760E+00 -0.1005140E+02 -0.2568960E-01  0.3718189E+00 -0.1746750E+01  0.6508590E-01  0.3660780E+00
  0.1970410E+01 -0.9905930E+01 -0.2568960E-01  0.3963989E+00 -0.1749433E+01  0.7043535E-01  0.3900909E+00
  0.2931880E+01 -0.9665100E+01 -0.2568960E-01  0.4188306E+00 -0.1753243E+01  0.7599109E-01  0.4118791E+00
  0.3865100E+01 -0.9331180E+01 -0.2568960E-01  0.4378952E+00 -0.1757566E+01  0.8131081E-01  0.4302799E+00
  0.4761110E+01 -0.8907410E+01 -0.2568960E-01  0.4543506E+00 -0.1761890E+01  0.8629601E-01  0.4460801E+00
  0.5611260E+01 -0.8397840E+01 -0.2568960E-01  0.4673979E+00 -0.1766022E+01  0.9066973E-01  0.4585192E+00
  0.6407370E+01 -0.7807410E+01 -0.2568960E-01  0.4778692E+00 -0.1769381E+01  0.9427488E-01  0.4684775E+00
  0.7141780E+01 -0.7141780E+01 -0.2568960E-01  0.4845620E+00 -0.1771701E+01  0.9669732E-01  0.4748157E+00
  0.7807410E+01 -0.6407370E+01 -0.2568960E-01  0.4883584E+00 -0.1772972E+01  0.9806299E-01  0.4784115E+00
  0.8397840E+01 -0.5611260E+01 -0.2568960E-01  0.4883703E+00 -0.1773085E+01  0.9811929E-01  0.4784122E+00
  0.8907410E+01 -0.4761110E+01 -0.2568960E-01  0.4857090E+00 -0.1772020E+01  0.9707779E-01  0.4759088E+00
  0.9331180E+01 -0.3865100E+01 -0.2568960E-01  0.4793013E+00 -0.1769887E+01  0.9479516E-01  0.4698336E+00
  0.9665100E+01 -0.2931870E+01 -0.2568960E-01  0.4700311E+00 -0.1766808E+01  0.9154264E-01  0.4610305E+00
  0.9905930E+01 -0.1970410E+01 -0.2568960E-01  0.4570196E+00 -0.1762852E+01  0.8723475E-01  0.4486167E+00
  0.1005140E+02 -0.9899690E+00 -0.2568960E-01  0.4414901E+00 -0.1758342E+01  0.8231503E-01  0.4337485E+00
  0.1010000E+02  0.0000000E+00 -0.1027320E+00  0.4214400E+00 -0.1753973E+01  0.7676715E-01  0.4143893E+00
  0.1005140E+02  0.9899730E+00 -0.1027320E+00  0.4000735E+00 -0.1750106E+01  0.7135314E-01  0.3936592E+00
  0.9905930E+01  0.1970410E+01 -0.1027320E+00  0.3756590E+00 -0.1747302E+01  0.6596223E-01  0.3698225E+00
  0.9665100E+01  0.2931880E+01 -0.1027320E+00  0.3491661E+00 -0.1746414E+01  0.6100498E-01  0.3437955E+00
  0.9331180E+01  0.3865100E+01 -0.1027320E+00  0.3205646E+00 -0.1749400E+01  0.5694995E-01  0.3154653E+00
  0.8907400E+01  0.4761110E+01 -0.1027320E+00  0.2901680E+00 -0.1757773E+01  0.5393910E-01  0.2851106E+00
  0.8397840E+01  0.5611260E+01 -0.1027320E+00  0.2579165E+00 -0.1774570E+01  0.5219364E-01  0.2525801E+00
  0.7807410E+01  0.6407370E+01 -0.1027320E+00  0.2248692E+00 -0.1803602E+01  0.5187929E-01  0.2188029E+00
  0.7141780E+01  0.7141780E+01 -0.1027320E+00  0.1917415E+00 -0.1852820E+01  0.5336165E-01  0.1841666E+00
  0.6407370E+01  0.7807410E+01 -0.1027320E+00  0.1592788E+00 -0.1934113E+01  0.5660391E-01  0.1488816E+00
  0.5611260E+01  0.8397840E+01 -0.1027320E+00  0.1287915E+00 -0.2070649E+01  0.6172934E-01  0.1130343E+00
  0.4761110E+01  0.8907410E+01 -0.1027320E+00  0.1033191E+00 -0.2295796E+01  0.6851452E-01  0.7733428E-01
  0.3865100E+01  0.9331180E+01 -0.1027320E+00  0.8795278E-01 -0.2636241E+01  0.7695907E-01  0.4257926E-01
  0.2931870E+01  0.9665100E+01 -0.1027320E+00  0.8729858E-01 -0.3040672E+01  0.8685439E-01  0.8795274E-02
  0.1970410E+01  0.9905930E+01 -0.1027320E+00  0.1009641E+00  0.2903789E+01  0.9812272E-01 -0.2378398E-01
  0.9899730E+00  0.1005140E+02 -0.1027320E+00  0.1231582E+00  0.2679891E+01  0.1102630E+00 -0.5486353E-01
 -0.4414850E-06  0.1010000E+02 -0.1027320E+00  0.1485678E+00  0.2544613E+01  0.1228711E+00 -0.8351696E-01
 -0.9899740E+00  0.1005140E+02 -0.1027320E+00  0.1746455E+00  0.2460704E+01  0.1357020E+00 -0.1099365E+00
 -0.1970410E+01  0.9905930E+01 -0.1027320E+00  0.1999138E+00  0.2408093E+01  0.1485031E+00 -0.1338370E+00
 -0.2931880E+01  0.9665100E+01 -0.1027320E+00  0.2236596E+00  0.2373135E+01  0.1608076E+00 -0.1554496E+00
 -0.3865100E+01  0.9331180E+01 -0.1027320E+00  0.2445598E+00  0.2350875E+01  0.1720076E+00 -0.1738474E+00
 -0.4761110E+01  0.8907400E+01 -0.1027320E+00  0.2626590E+00  0.2336223E+01  0.1819820E+00 -0.1893999E+00
 -0.5611260E+01  0.8397840E+01 -0.1027320E+00  0.2774563E+00  0.2327239E+01  0.1904290E+00 -0.2017889E+00
 -0.6407370E+01  0.7807410E+01 -0.1027320E+00  0.2892628E+00  0.2320900E+01  0.1971947E+00 -0.2116299E+00
 -0.7141780E+01  0.7141780E+01 -0.1027320E+00  0.2970931E+00  0.2317411E+01  0.2017731E+00 -0.2180640E+00
 -0.7807410E+01  0.6407370E+01 -0.1027320E+00  0.3012749E+00  0.2315701E+01  0.2042348E+00 -0.2214830E+00
 -0.8397840E+01  0.5611260E+01 -0.1027320E+00  0.3013988E+00  0.2315925E+01  0.2043683E+00 -0.2215284E+00
 -0.8907410E+01  0.4761110E+01 -0.1027320E+00  0.2982259E+00  0.2316895E+01  0.2024294E+00 -0.2190001E+00
 -0.9331180E+01  0.3865100E+01 -0.1027320E+00  0.2910656E+00  0.2320038E+01  0.1982401E+00 -0.2131197E+00
 -0.9665100E+01  0.2931880E+01 -0.1027320E+00  0.2803470E+00  0.2325418E+01  0.1920414E+00 -0.2042414E+00
 -0.9905930E+01  0.1970410E+01 -0.1027320E+00  0.2657646E+00  0.2334473E+01  0.1837979E+00 -0.1919613E+00
 -0.1005140E+02  0.9899730E+00 -0.1027320E+00  0.2483595E+00  0.2347382E+01  0.1740623E+00 -0.1771574E+00
 -0.1010000E+02 -0.8829700E-06 -0.1027320E+00  0.2279457E+00  0.2367943E+01  0.1630644E+00 -0.1592773E+00
 -0.1005140E+02 -0.9899740E+00 -0.1027320E+00  0.2050591E+00  0.2399257E+01  0.1511064E+00 -0.1386222E+00
 -0.9905930E+01 -0.1970410E+01 -0.1027320E+00  0.1798133E+00  0.2448688E+01  0.1383473E+00 -0.1148602E+00
 -0.9665100E+01 -0.2931880E+01 -0.1027320E+00  0.1536986E+00  0.2524737E+01  0.1253722E+00 -0.8891054E-01
 -0.9331180E+01 -0.3865100E+01 -0.1027320E+00  0.1279701E+00  0.2647839E+01  0.1126854E+00 -0.6064943E-01
 -0.8907400E+01 -0.4761110E+01 -0.1027320E+00  0.1049972E+00  0.2848256E+01  0.1005122E+00 -0.3035970E-01
 -0.8397840E+01 -0.5611260E+01 -0.1027320E+00  0.8912805E-01 -0.3117828E+01  0.8910288E-01  0.2117917E-02
 -0.7807400E+01 -0.6407370E+01 -0.1027320E+00  0.8656614E-01 -0.2714612E+01  0.7879424E-01  0.3584919E-01
 -0.7141780E+01 -0.7141780E+01 -0.1027320E+00  0.9935320E-01 -0.2353295E+01  0.7004935E-01  0.7045671E-01
 -0.6407370E+01 -0.7807410E+01 -0.1027320E+00  0.1230227E+00 -0.2107522E+01  0.6290459E-01  0.1057241E+00
 -0.5611260E+01 -0.8397850E+01 -0.1027320E+00  0.1528197E+00 -0.1956858E+01  0.5754318E-01  0.1415721E+00
 -0.4761110E+01 -0.8907410E+01 -0.1027320E+00  0.1852896E+00 -0.1865837E+01  0.5387821E-01  0.1772833E+00
 -0.3865100E+01 -0.9331190E+01 -0.1027320E+00  0.2183634E+00 -0.1811512E+01  0.5205727E-01  0.2120675E+00
 -0.2931870E+01 -0.9665100E+01 -0.1027320E+00  0.2513133E+00 -0.1778906E+01  0.5192395E-01  0.2458908E+00
 -0.1970410E+01 -0.9905930E+01 -0.1027320E+00  0.2836125E+00 -0.1760492E+01  0.5347786E-01  0.2785249E+00
 -0.9899710E+00 -0.1005140E+02 -0.1027320E+00  0.3147420E+00 -0.1750654E+01  0.5630403E-01  0.3096650E+00
  0.1204410E-06 -0.1010000E+02 -0.1027320E+00  0.3436975E+00 -0.1746775E+01  0.6017182E-01  0.3383893E+00
  0.9899760E+00 -0.1005140E+02 -0.1027320E+00  0.3706014E+00 -0.1746714E+01  0.6485969E-01  0.3648816E+00
  0.1970410E+01 -0.9905930E+01 -0.1027320E+00  0.3951459E+00 -0.1749397E+01  0.7019858E-01  0.3888605E+00
  0.2931880E+01 -0.9665100E+01 -0.1027320E+00  0.4174749E+00 -0.1753237E+01  0.7574265E-01  0.4105464E+00
  0.3865100E+01 -0.9331180E+01 -0.1027320E+00  0.4366066E+00 -0.1757534E+01  0.8105776E-01  0.4290163E+00
  0.4761110E+01 -0.8907410E+01 -0.1027320E+00  0.4528734E+00 -0.1761886E+01  0.8601360E-01  0.4446302E+00
  0.5611260E+01 -0.8397840E+01 -0.1027320E+00  0.4659283E+00 -0.1766026E+01  0.9038606E-01  0.4570772E+00
  0.6407370E+01 -0.7807410E+01 -0.1027320E+00  0.4763219E+00 -0.1769392E+01  0.9397498E-01  0.4669596E+00
  0.7141780E+01 -0.7141780E+01 -0.1027320E+00  0.4831442E+00 -0.1771711E+01  0.9641907E-01  0.4734254E+00
  0.7807410E+01 -0.6407370E+01 -0.1027320E+00  0.4867751E+00 -0.1772984E+01  0.9775067E-01  0.4768593E+00
  0.8397840E+01 -0.5611260E+01 -0.1027320E+00  0.4868369E+00 -0.1773098E+01  0.9781770E-01  0.4769086E+00
  0.8907410E+01 -0.4761110E+01 -0.1027320E+00  0.4841338E+00 -0.1772030E+01  0.9676778E-01  0.4743644E+00
  0.9331180E+01 -0.3865100E+01 -0.1027320E+00  0.4778982E+00 -0.1769892E+01  0.9452008E-01  0.4684577E+00
  0.9665100E+01 -0.2931870E+01 -0.1027320E+00  0.4685096E+00 -0.1766818E+01  0.9125082E-01  0.4595373E+00
  0.9905930E+01 -0.1970410E+01 -0.1027320E+00  0.4555818E+00 -0.1762849E+01  0.8695897E-01  0.4472057E+00
  0.1005140E+02 -0.9899690E+00 -0.1027320E+00  0.4400532E+00 -0.1758333E+01  0.8204309E-01  0.4323375E+00
  0.1010000E+02  0.0000000E+00 -0.2310450E+00  0.4193758E+00 -0.1753884E+01  0.7635420E-01  0.4123665E+00
  0.1005140E+02  0.9899730E+00 -0.2310450E+00  0.3979729E+00 -0.1750054E+01  0.7095829E-01  0.3915959E+00
  0.9905930E+01  0.1970410E+01 -0.2310450E+00  0.3736537E+00 -0.1747239E+01  0.6558679E-01  0.3678525E+00
  0.9665100E+01  0.2931880E+01 -0.2310450E+00  0.3473076E+00 -0.1746310E+01  0.6064472E-01  0.3419719E+00
  0.9331180E+01  0.3865100E+01 -0.2310450E+00  0.3189575E+00 -0.1749166E+01  0.5659107E-01  0.3138970E+00
  0.8907400E+01  0.4761110E+01 -0.2310450E+00  0.2886285E+00 -0.1757638E+01  0.5361449E-01  0.2836052E+00
  0.8397840E+01  0.5611260E+01 -0.2310450E+00  0.2565189E+00 -0.1774433E+01  0.5187631E-01  0.2512186E+00
  0.7807410E+01  0.6407370E+01 -0.2310450E+00  0.2236372E+00 -0.1803408E+01  0.5155266E-01  0.2176141E+00
  0.7141780E+01  0.7141780E+01 -0.2310450E+00  0.1907063E+00 -0.1852365E+01  0.5299019E-01  0.1831964E+00
  0.6407370E+01  0.7807410E+01 -0.2310450E+00  0.1583967E+00 -0.1933841E+01  0.5625010E-01  0.1480724E+00
  0.5611260E+01  0.8397840E+01 -0.2310450E+00  0.1280527E+00 -0.2070465E+01  0.6135445E-01  0.1123972E+00
  0.4761110E+01  0.8907410E+01 -0.2310450E+00  0.1026935E+00 -0.2295803E+01  0.6810023E-01  0.7686558E-01
  0.3865100E+01  0.9331180E+01 -0.2310450E+00  0.8736663E-01 -0.2636816E+01  0.7647050E-01  0.4225152E-01
  0.2931870E+01  0.9665100E+01 -0.2310450E+00  0.8677778E-01 -0.3041181E+01  0.8634068E-01  0.8698829E-02
  0.1970410E+01  0.9905930E+01 -0.2310450E+00  0.1003997E+00  0.2903176E+01  0.9755973E-01 -0.2371087E-01
  0.9899730E+00  0.1005140E+02 -0.2310450E+00  0.1225093E+00  0.2679148E+01  0.1096415E+00 -0.5465602E-01
 -0.4414850E-06  0.1010000E+02 -0.2310450E+00  0.1478603E+00  0.2543382E+01  0.1221836E+00 -0.8326971E-01
 -0.9899740E+00  0.1005140E+02 -0.2310450E+00  0.1737384E+00  0.2460221E+01  0.1349443E+00 -0.1094306E+00
 -0.1970410E+01  0.9905930E+01 -0.2310450E+00  0.1988745E+00  0.2407747E+01  0.1476851E+00 -0.1331923E+00
 -0.2931880E+01  0.9665100E+01 -0.2310450E+00  0.2225303E+00  0.2372762E+01  0.1599379E+00 -0.1547242E+00
 -0.3865100E+01  0.9331180E+01 -0.2310450E+00  0.2434608E+00  0.2350185E+01  0.1711152E+00 -0.1731841E+00
 -0.4761110E+01  0.8907400E+01 -0.2310450E+00  0.2613226E+00  0.2335923E+01  0.1809995E+00 -0.1884905E+00
 -0.5611260E+01  0.8397840E+01 -0.2310450E+00  0.2760243E+00  0.2327013E+01  0.1894007E+00 -0.2007904E+00
 -0.6407370E+01  0.7807410E+01 -0.2310450E+00  0.2878030E+00  0.2320641E+01  0.1961449E+00 -0.2106128E+00
 -0.7141780E+01  0.7141780E+01 -0.2310450E+00  0.2957661E+00  0.2316889E+01  0.2007585E+00 -0.2171949E+00
 -0.7807410E+01  0.6407370E+01 -0.2310450E+00  0.2997512E+00  0.2315454E+01  0.2031475E+00 -0.2204130E+00
 -0.8397840E+01  0.5611260E+01 -0.2310450E+00  0.2998453E+00  0.2315724E+01  0.2032708E+00 -0.2204273E+00
 -0.8907410E+01  0.4761110E+01 -0.2310450E+00  0.2967161E+00  0.2316644E+01  0.2013500E+00 -0.2179418E+00
 -0.9331180E+01  0.3865100E+01 -0.2310450E+00  0.2897649E+00  0.2319501E+01  0.1972403E+00 -0.2122733E+00
 -0.9665100E+01  0.2931880E+01 -0.2310450E+00  0.2789329E+00  0.2325146E+01  0.1910174E+00 -0.2032632E+00
 -0.9905930E+01  0.1970410E+01 -0.2310450E+00  0.2643920E+00  0.2334234E+01  0.1828031E+00 -0.1910136E+00
 -0.1005140E+02  0.9899730E+00 -0.2310450E+00  0.2470933E+00  0.2347060E+01  0.1731180E+00 -0.1763100E+00
 -0.1010000E+02 -0.8829700E-06 -0.2310450E+00  0.2269175E+00  0.2367186E+01  0.1622088E+00 -0.1586816E+00
 -0.1005140E+02 -0.9899740E+00 -0.2310450E+00  0.2040219E+00  0.2398839E+01  0.1502843E+00 -0.1379839E+00
 -0.9905930E+01 -0.1970410E+01 -0.2310450E+00  0.1788746E+00  0.2448298E+01  0.1375804E+00 -0.1143142E+00
 -0.9665100E+01 -0.2931880E+01 -0.2310450E+00  0.1528910E+00  0.2524196E+01  0.1246655E+00 -0.8851081E-01
 -0.9331180E+01 -0.3865100E+01 -0.2310450E+00  0.1273351E+00  0.2646431E+01  0.1120412E+00 -0.6050628E-01
 -0.8907400E+01 -0.4761110E+01 -0.2310450E+00  0.1044250E+00  0.2847419E+01  0.9993910E-01 -0.3027798E-01
 -0.8397840E+01 -0.5611260E+01 -0.2310450E+00  0.8860977E-01 -0.3118383E+01  0.8858591E-01  0.2056400E-02
 -0.7807400E+01 -0.6407370E+01 -0.2310450E+00  0.8603883E-01 -0.2714812E+01  0.7832141E-01  0.3561511E-01
 -0.7141780E+01 -0.7141780E+01 -0.2310450E+00  0.9870822E-01 -0.2353252E+01  0.6959160E-01  0.7000230E-01
 -0.6407370E+01 -0.7807410E+01 -0.2310450E+00  0.1222982E+00 -0.2107376E+01  0.6251879E-01  0.1051107E+00
 -0.5611260E+01 -0.8397850E+01 -0.2310450E+00  0.1519597E+00 -0.1956656E+01  0.5719086E-01  0.1407869E+00
 -0.4761110E+01 -0.8907410E+01 -0.2310450E+00  0.1842787E+00 -0.1865589E+01  0.5354058E-01  0.1763294E+00
 -0.3865100E+01 -0.9331190E+01 -0.2310450E+00  0.2172118E+00 -0.1811101E+01  0.5169607E-01  0.2109704E+00
 -0.2931870E+01 -0.9665100E+01 -0.2310450E+00  0.2499483E+00 -0.1778730E+01  0.5159895E-01  0.2445643E+00
 -0.1970410E+01 -0.9905930E+01 -0.2310450E+00  0.2820825E+00 -0.1760372E+01  0.5315621E-01  0.2770288E+00
 -0.9899710E+00 -0.1005140E+02 -0.2310450E+00  0.3130781E+00 -0.1750540E+01  0.5597131E-01  0.3080342E+00
  0.1204410E-06 -0.1010000E+02 -0.2310450E+00  0.3419862E+00 -0.1746578E+01  0.5980564E-01  0.3367162E+00
  0.9899760E+00 -0.1005140E+02 -0.2310450E+00  0.3686346E+00 -0.1746627E+01  0.6448370E-01  0.3629509E+00
  0.1970410E+01 -0.9905930E+01 -0.2310450E+00  0.3930395E+00 -0.1749344E+01  0.6980402E-01  0.3867913E+00
  0.2931880E+01 -0.9665100E+01 -0.2310450E+00  0.4152844E+00 -0.1753197E+01  0.7532866E-01  0.4083953E+00
  0.3865100E+01 -0.9331180E+01 -0.2310450E+00  0.4344732E+00 -0.1757464E+01  0.8063201E-01  0.4269255E+00
  0.4761110E+01 -0.8907410E+01 -0.2310450E+00  0.4504922E+00 -0.1761852E+01  0.8554657E-01  0.4422952E+00
  0.5611260E+01 -0.8397840E+01 -0.2310450E+00  0.4634556E+00 -0.1766009E+01  0.8989900E-01  0.4546529E+00
  0.6407370E+01 -0.7807410E+01 -0.2310450E+00  0.4738290E+00 -0.1769382E+01  0.9347863E-01  0.4645166E+00
  0.7141780E+01 -0.7141780E+01 -0.2310450E+00  0.4807982E+00 -0.1771698E+01  0.9594464E-01  0.4711280E+00
  0.7807410E+01 -0.6407370E+01 -0.2310450E+00  0.4842260E+00 -0.1772976E+01  0.9723496E-01  0.4743629E+00
  0.8397840E+01 -0.5611260E+01 -0.2310450E+00  0.4842557E+00 -0.1773092E+01  0.9729610E-01  0.4743807E+00
  0.8907410E+01 -0.4761110E+01 -0.2310450E+00  0.4815969E+00 -0.1772019E+01  0.9625549E-01  0.4718797E+00
  0.9331180E+01 -0.3865100E+01 -0.2310450E+00  0.4755761E+00 -0.1769873E+01  0.9405182E-01  0.4661833E+00
  0.9665100E+01 -0.2931870E+01 -0.2310450E+00  0.4660569E+00 -0.1766804E+01  0.9076703E-01  0.4571328E+00
  0.9905930E+01 -0.1970410E+01 -0.2310450E+00  0.4531628E+00 -0.1762828E+01  0.8648773E-01  0.4448330E+00
  0.1005140E+02 -0.9899690E+00 -0.2310450E+00  0.4377365E+00 -0.1758291E+01  0.8159330E-01  0.4300649E+00
  0.1010000E+02  0.0000000E+00 -0.4105000E+00  0.4162979E+00 -0.1753821E+01  0.7576800E-01  0.4093448E+00
  0.1005140E+02  0.9899730E+00 -0.4105000E+00  0.3949594E+00 -0.1750026E+01  0.7040989E-01  0.3886327E+00
  0.9905930E+01  0.1970410E+01 -0.4105000E+00  0.3708483E+00 -0.1747174E+01  0.6507079E-01  0.3650948E+00
  0.9665100E+01  0.2931880E+01 -0.4105000E+00  0.3446552E+00 -0.1746249E+01  0.6016099E-01  0.3393639E+00
  0.9331180E+01  0.3865100E+01 -0.4105000E+00  0.3165918E+00 -0.1749028E+01  0.5612851E-01  0.3115765E+00
  0.8907400E+01  0.4761110E+01 -0.4105000E+00  0.2864350E+00 -0.1757574E+01  0.5318922E-01  0.2814533E+00
  0.8397840E+01  0.5611260E+01 -0.4105000E+00  0.2545700E+00 -0.1774305E+01  0.5145039E-01  0.2493165E+00
  0.7807410E+01  0.6407370E+01 -0.4105000E+00  0.2219057E+00 -0.1803319E+01  0.5113439E-01  0.2159338E+00
  0.7141780E+01  0.7141780E+01 -0.4105000E+00  0.1892449E+00 -0.1852114E+01  0.5253853E-01  0.1818057E+00
  0.6407370E+01  0.7807410E+01 -0.4105000E+00  0.1571741E+00 -0.1933708E+01  0.5579649E-01  0.1469369E+00
  0.5611260E+01  0.8397840E+01 -0.4105000E+00  0.1270365E+00 -0.2070321E+01  0.6085154E-01  0.1115140E+00
  0.4761110E+01  0.8907410E+01 -0.4105000E+00  0.1018650E+00 -0.2295905E+01  0.6755859E-01  0.7623859E-01
  0.3865100E+01  0.9331180E+01 -0.4105000E+00  0.8663163E-01 -0.2637245E+01  0.7584511E-01  0.4186357E-01
  0.2931870E+01  0.9665100E+01 -0.4105000E+00  0.8608600E-01 -0.3041457E+01  0.8565477E-01  0.8605891E-02
  0.1970410E+01  0.9905930E+01 -0.4105000E+00  0.9962388E-01  0.2902475E+01  0.9678932E-01 -0.2359546E-01
  0.9899730E+00  0.1005140E+02 -0.4105000E+00  0.1215876E+00  0.2678674E+01  0.1087909E+00 -0.5429635E-01
 -0.4414850E-06  0.1010000E+02 -0.4105000E+00  0.1467915E+00  0.2542585E+01  0.1212344E+00 -0.8276444E-01
 -0.9899740E+00  0.1005140E+02 -0.4105000E+00  0.1724251E+00  0.2459927E+01  0.1338923E+00 -0.1086429E+00
 -0.1970410E+01  0.9905930E+01 -0.4105000E+00  0.1974155E+00  0.2407351E+01  0.1465492E+00 -0.1322732E+00
 -0.2931880E+01  0.9665100E+01 -0.4105000E+00  0.2208760E+00  0.2372517E+01  0.1587113E+00 -0.1536130E+00
 -0.3865100E+01  0.9331180E+01 -0.4105000E+00  0.2417384E+00  0.2349716E+01  0.1698239E+00 -0.1720387E+00
 -0.4761110E+01  0.8907400E+01 -0.4105000E+00  0.2593659E+00  0.2335715E+01  0.1796053E+00 -0.1871166E+00
 -0.5611260E+01  0.8397840E+01 -0.4105000E+00  0.2740088E+00  0.2326737E+01  0.1879629E+00 -0.1993760E+00
 -0.6407370E+01  0.7807410E+01 -0.4105000E+00  0.2856596E+00  0.2320454E+01  0.1946450E+00 -0.2090806E+00
 -0.7141780E+01  0.7141780E+01 -0.4105000E+00  0.2936778E+00  0.2316516E+01  0.1992606E+00 -0.2157357E+00