 VARIABLES="X" "Y" "Z" "abs(eta) (m)" "angle(phi) (rad)" "PRE1" "PRE2"
ZONE N=   3200 ,E =    3136 ,F=FEPOINT,ET=QUADRILATERAL
  0.1010000E+02  0.0000000E+00  0.0000000E+00  0.1741641E+00  0.2779361E+01  0.1628623E+00 -0.6171716E-01
  0.1005140E+02  0.9899730E+00  0.0000000E+00  0.1741382E+00  0.2779721E+01  0.1628603E+00 -0.6164942E-01
  0.9905930E+01  0.1970410E+01  0.0000000E+00  0.1741653E+00  0.2779339E+01  0.1628620E+00 -0.6172121E-01
  0.9665100E+01  0.2931880E+01  0.0000000E+00  0.1741380E+00  0.2779723E+01  0.1628602E+00 -0.6164895E-01
  0.9331180E+01  0.3865100E+01  0.0000000E+00  0.1741643E+00  0.2779360E+01  0.1628625E+00 -0.6171732E-01
  0.8907400E+01  0.4761110E+01  0.0000000E+00  0.1741383E+00  0.2779723E+01  0.1628605E+00 -0.6164898E-01
  0.8397840E+01  0.5611260E+01  0.0000000E+00  0.1741652E+00  0.2779338E+01  0.1628619E+00 -0.6172119E-01
  0.7807410E+01  0.6407370E+01  0.0000000E+00  0.1741382E+00  0.2779721E+01  0.1628603E+00 -0.6164930E-01
  0.7141780E+01  0.7141780E+01  0.0000000E+00  0.1741642E+00  0.2779363E+01  0.1628625E+00 -0.6171682E-01
  0.6407370E+01  0.7807410E+01  0.0000000E+00  0.1741382E+00  0.2779721E+01  0.1628603E+00 -0.6164926E-01
  0.5611260E+01  0.8397840E+01  0.0000000E+00  0.1741654E+00  0.2779339E+01  0.1628622E+00 -0.6172114E-01
  0.4761110E+01  0.8907410E+01  0.0000000E+00  0.1741381E+00  0.2779723E+01  0.1628604E+00 -0.6164898E-01
  0.3865100E+01  0.9331180E+01  0.0000000E+00  0.1741644E+00  0.2779361E+01  0.1628626E+00 -0.6171732E-01
  0.2931870E+01  0.9665100E+01  0.0000000E+00  0.1741381E+00  0.2779723E+01  0.1628603E+00 -0.6164895E-01
  0.1970410E+01  0.9905930E+01  0.0000000E+00  0.1741653E+00  0.2779338E+01  0.1628620E+00 -0.6172127E-01
  0.9899730E+00  0.1005140E+02  0.0000000E+00  0.1741383E+00  0.2779721E+01  0.1628603E+00 -0.6164942E-01
 -0.4414850E-06  0.1010000E+02  0.0000000E+00  0.1741643E+00  0.2779362E+01  0.1628625E+00 -0.6171702E-01
 -0.9899740E+00  0.1005140E+02  0.0000000E+00  0.1741383E+00  0.2779721E+01  0.1628604E+00 -0.6164938E-01
 -0.1970410E+01  0.9905930E+01  0.0000000E+00  0.1741653E+00  0.2779339E+01  0.1628621E+00 -0.6172122E-01
 -0.2931880E+01  0.9665100E+01  0.0000000E+00  0.1741381E+00  0.2779723E+01  0.1628603E+00 -0.6164893E-01
 -0.3865100E+01  0.9331180E+01  0.0000000E+00  0.1741644E+00  0.2779361E+01  0.1628626E+00 -0.6171732E-01
 -0.4761110E+01  0.8907400E+01  0.0000000E+00  0.1741381E+00  0.2779723E+01  0.1628603E+00 -0.6164901E-01
 -0.5611260E+01  0.8397840E+01  0.0000000E+00  0.1741652E+00  0.2779338E+01  0.1628619E+00 -0.6172122E-01
 -0.6407370E+01  0.7807410E+01  0.0000000E+00  0.1741381E+00  0.2779721E+01  0.1628602E+00 -0.6164937E-01
 -0.7141780E+01  0.7141780E+01  0.0000000E+00  0.1741642E+00  0.2779363E+01  0.1628625E+00 -0.6171681E-01
 -0.7807410E+01  0.6407370E+01  0.0000000E+00  0.1741381E+00  0.2779721E+01  0.1628602E+00 -0.6164934E-01
 -0.8397840E+01  0.5611260E+01  0.0000000E+00  0.1741652E+00  0.2779339E+01  0.1628620E+00 -0.6172118E-01
 -0.8907410E+01  0.4761110E+01  0.0000000E+00  0.1741382E+00  0.2779723E+01  0.1628604E+00 -0.6164901E-01
 -0.9331180E+01  0.3865100E+01  0.0000000E+00  0.1741644E+00  0.2779360E+01  0.1628625E+00 -0.6171736E-01
 -0.9665100E+01  0.2931880E+01  0.0000000E+00  0.1741383E+00  0.2779723E+01  0.1628605E+00 -0.6164898E-01
 -0.9905930E+01  0.1970410E+01  0.0000000E+00  0.1741654E+00  0.2779338E+01  0.1628621E+00 -0.6172128E-01
 -0.1005140E+02  0.9899730E+00  0.0000000E+00  0.1741383E+00  0.2779721E+01  0.1628603E+00 -0.6164940E-01
 -0.1010000E+02 -0.8829700E-06  0.0000000E+00  0.1741644E+00  0.2779362E+01  0.1628626E+00 -0.6171710E-01
 -0.1005140E+02 -0.9899740E+00  0.0000000E+00  0.1741382E+00  0.2779720E+01  0.1628603E+00 -0.6164943E-01
 -0.9905930E+01 -0.1970410E+01  0.0000000E+00  0.1741652E+00  0.2779338E+01  0.1628619E+00 -0.6172123E-01
 -0.9665100E+01 -0.2931880E+01  0.0000000E+00  0.1741380E+00  0.2779722E+01  0.1628602E+00 -0.6164901E-01
 -0.9331180E+01 -0.3865100E+01  0.0000000E+00  0.1741643E+00  0.2779360E+01  0.1628624E+00 -0.6171733E-01
 -0.8907400E+01 -0.4761110E+01  0.0000000E+00  0.1741381E+00  0.2779722E+01  0.1628603E+00 -0.6164905E-01
 -0.8397840E+01 -0.5611260E+01  0.0000000E+00  0.1741653E+00  0.2779338E+01  0.1628620E+00 -0.6172129E-01
 -0.7807400E+01 -0.6407370E+01  0.0000000E+00  0.1741383E+00  0.2779721E+01  0.1628604E+00 -0.6164936E-01
 -0.7141780E+01 -0.7141780E+01  0.0000000E+00  0.1741641E+00  0.2779362E+01  0.1628623E+00 -0.6171699E-01
 -0.6407370E+01 -0.7807410E+01  0.0000000E+00  0.1741383E+00  0.2779721E+01  0.1628603E+00 -0.6164937E-01
 -0.5611260E+01 -0.8397850E+01  0.0000000E+00  0.1741653E+00  0.2779338E+01  0.1628620E+00 -0.6172132E-01
 -0.4761110E+01 -0.8907410E+01  0.0000000E+00  0.1741383E+00  0.2779722E+01  0.1628604E+00 -0.6164918E-01
 -0.3865100E+01 -0.9331190E+01  0.0000000E+00  0.1741644E+00  0.2779359E+01  0.1628624E+00 -0.6171753E-01
 -0.2931870E+01 -0.9665100E+01  0.0000000E+00  0.1741381E+00  0.2779722E+01  0.1628602E+00 -0.6164915E-01
 -0.1970410E+01 -0.9905930E+01  0.0000000E+00  0.1741653E+00  0.2779337E+01  0.1628619E+00 -0.6172142E-01
 -0.9899710E+00 -0.1005140E+02  0.0000000E+00  0.1741383E+00  0.2779720E+01  0.1628603E+00 -0.6164955E-01
  0.1204410E-06 -0.1010000E+02  0.0000000E+00  0.1741643E+00  0.2779361E+01  0.1628624E+00 -0.6171717E-01
  0.9899760E+00 -0.1005140E+02  0.0000000E+00  0.1741383E+00  0.2779720E+01  0.1628603E+00 -0.6164953E-01
  0.1970410E+01 -0.9905930E+01  0.0000000E+00  0.1741653E+00  0.2779337E+01  0.1628620E+00 -0.6172141E-01
  0.2931880E+01 -0.9665100E+01  0.0000000E+00  0.1741381E+00  0.2779722E+01  0.1628603E+00 -0.6164909E-01
  0.3865100E+01 -0.9331180E+01  0.0000000E+00  0.1741645E+00  0.2779359E+01  0.1628625E+00 -0.6171763E-01
  0.4761110E+01 -0.8907410E+01  0.0000000E+00  0.1741382E+00  0.2779722E+01  0.1628603E+00 -0.6164913E-01
  0.5611260E+01 -0.8397840E+01  0.0000000E+00  0.1741654E+00  0.2779338E+01  0.1628621E+00 -0.6172141E-01
  0.6407370E+01 -0.7807410E+01  0.0000000E+00  0.1741382E+00  0.2779720E+01  0.1628602E+00 -0.6164958E-01
  0.7141780E+01 -0.7141780E+01  0.0000000E+00  0.1741641E+00  0.2779363E+01  0.1628624E+00 -0.6171680E-01
  0.7807410E+01 -0.6407370E+01  0.0000000E+00  0.1741382E+00  0.2779720E+01  0.1628603E+00 -0.6164948E-01
  0.8397840E+01 -0.5611260E+01  0.0000000E+00  0.1741653E+00  0.2779338E+01  0.1628620E+00 -0.6172129E-01
  0.8907410E+01 -0.4761110E+01  0.0000000E+00  0.1741383E+00  0.2779722E+01  0.1628604E+00 -0.6164919E-01
  0.9331180E+01 -0.3865100E+01  0.0000000E+00  0.1741644E+00  0.2779360E+01  0.1628625E+00 -0.6171742E-01
  0.9665100E+01 -0.2931870E+01  0.0000000E+00  0.1741381E+00  0.2779722E+01  0.1628602E+00 -0.6164910E-01
  0.9905930E+01 -0.1970410E+01  0.0000000E+00  0.1741654E+00  0.2779338E+01  0.1628620E+00 -0.6172134E-01
  0.1005140E+02 -0.9899690E+00  0.0000000E+00  0.1741384E+00  0.2779721E+01  0.1628605E+00 -0.6164949E-01
  0.1010000E+02  0.0000000E+00 -0.2568960E-01  0.1739345E+00  0.2779860E+01  0.1626784E+00 -0.6155467E-01
  0.1005140E+02  0.9899730E+00 -0.2568960E-01  0.1739173E+00  0.2780097E+01  0.1626768E+00 -0.6150999E-01
  0.9905930E+01  0.1970410E+01 -0.2568960E-01  0.1739481E+00  0.2779659E+01  0.1626787E+00 -0.6159205E-01
  0.9665100E+01  0.2931880E+01 -0.2568960E-01  0.1739171E+00  0.2780099E+01  0.1626768E+00 -0.6150965E-01
  0.9331180E+01  0.3865100E+01 -0.2568960E-01  0.1739347E+00  0.2779859E+01  0.1626785E+00 -0.6155490E-01
  0.8907400E+01  0.4761110E+01 -0.2568960E-01  0.1739173E+00  0.2780099E+01  0.1626770E+00 -0.6150956E-01
  0.8397840E+01  0.5611260E+01 -0.2568960E-01  0.1739480E+00  0.2779660E+01  0.1626787E+00 -0.6159197E-01
  0.7807410E+01  0.6407370E+01 -0.2568960E-01  0.1739173E+00  0.2780097E+01  0.1626768E+00 -0.6150997E-01
  0.7141780E+01  0.7141780E+01 -0.2568960E-01  0.1739345E+00  0.2779861E+01  0.1626784E+00 -0.6155436E-01
  0.6407370E+01  0.7807410E+01 -0.2568960E-01  0.1739172E+00  0.2780097E+01  0.1626767E+00 -0.6150999E-01
  0.5611260E+01  0.8397840E+01 -0.2568960E-01  0.1739481E+00  0.2779660E+01  0.1626788E+00 -0.6159196E-01
  0.4761110E+01  0.8907410E+01 -0.2568960E-01  0.1739172E+00  0.2780099E+01  0.1626768E+00 -0.6150964E-01
  0.3865100E+01  0.9331180E+01 -0.2568960E-01  0.1739347E+00  0.2779859E+01  0.1626785E+00 -0.6155487E-01
  0.2931870E+01  0.9665100E+01 -0.2568960E-01  0.1739171E+00  0.2780099E+01  0.1626768E+00 -0.6150953E-01
  0.1970410E+01  0.9905930E+01 -0.2568960E-01  0.1739481E+00  0.2779660E+01  0.1626787E+00 -0.6159204E-01
  0.9899730E+00  0.1005140E+02 -0.2568960E-01  0.1739172E+00  0.2780097E+01  0.1626767E+00 -0.6151000E-01
 -0.4414850E-06  0.1010000E+02 -0.2568960E-01  0.1739345E+00  0.2779860E+01  0.1626783E+00 -0.6155465E-01
 -0.9899740E+00  0.1005140E+02 -0.2568960E-01  0.1739172E+00  0.2780096E+01  0.1626767E+00 -0.6151003E-01
 -0.1970410E+01  0.9905930E+01 -0.2568960E-01  0.1739481E+00  0.2779660E+01  0.1626788E+00 -0.6159200E-01
 -0.2931880E+01  0.9665100E+01 -0.2568960E-01  0.1739171E+00  0.2780099E+01  0.1626768E+00 -0.6150957E-01
 -0.3865100E+01  0.9331180E+01 -0.2568960E-01  0.1739348E+00  0.2779859E+01  0.1626785E+00 -0.6155483E-01
 -0.4761110E+01  0.8907400E+01 -0.2568960E-01  0.1739171E+00  0.2780099E+01  0.1626768E+00 -0.6150961E-01
 -0.5611260E+01  0.8397840E+01 -0.2568960E-01  0.1739481E+00  0.2779660E+01  0.1626787E+00 -0.6159203E-01
 -0.6407370E+01  0.7807410E+01 -0.2568960E-01  0.1739172E+00  0.2780097E+01  0.1626767E+00 -0.6150992E-01
 -0.7141780E+01  0.7141780E+01 -0.2568960E-01  0.1739346E+00  0.2779862E+01  0.1626786E+00 -0.6155437E-01
 -0.7807410E+01  0.6407370E+01 -0.2568960E-01  0.1739173E+00  0.2780097E+01  0.1626768E+00 -0.6150991E-01
 -0.8397840E+01  0.5611260E+01 -0.2568960E-01  0.1739480E+00  0.2779660E+01  0.1626787E+00 -0.6159203E-01
 -0.8907410E+01  0.4761110E+01 -0.2568960E-01  0.1739171E+00  0.2780099E+01  0.1626767E+00 -0.6150959E-01
 -0.9331180E+01  0.3865100E+01 -0.2568960E-01  0.1739345E+00  0.2779858E+01  0.1626782E+00 -0.6155487E-01
 -0.9665100E+01  0.2931880E+01 -0.2568960E-01  0.1739172E+00  0.2780099E+01  0.1626769E+00 -0.6150964E-01
 -0.9905930E+01  0.1970410E+01 -0.2568960E-01  0.1739480E+00  0.2779660E+01  0.1626786E+00 -0.6159198E-01
 -0.1005140E+02  0.9899730E+00 -0.2568960E-01  0.1739174E+00  0.2780097E+01  0.1626770E+00 -0.6151005E-01
 -0.1010000E+02 -0.8829700E-06 -0.2568960E-01  0.1739345E+00  0.2779860E+01  0.1626784E+00 -0.6155466E-01
 -0.1005140E+02 -0.9899740E+00 -0.2568960E-01  0.1739174E+00  0.2780096E+01  0.1626768E+00 -0.6151011E-01
 -0.9905930E+01 -0.1970410E+01 -0.2568960E-01  0.1739481E+00  0.2779660E+01  0.1626787E+00 -0.6159201E-01
 -0.9665100E+01 -0.2931880E+01 -0.2568960E-01  0.1739172E+00  0.2780099E+01  0.1626768E+00 -0.6150965E-01
 -0.9331180E+01 -0.3865100E+01 -0.2568960E-01  0.1739347E+00  0.2779858E+01  0.1626784E+00 -0.6155493E-01
 -0.8907400E+01 -0.4761110E+01 -0.2568960E-01  0.1739173E+00  0.2780099E+01  0.1626769E+00 -0.6150967E-01
 -0.8397840E+01 -0.5611260E+01 -0.2568960E-01  0.1739479E+00  0.2779659E+01  0.1626784E+00 -0.6159205E-01
 -0.7807400E+01 -0.6407370E+01 -0.2568960E-01  0.1739173E+00  0.2780096E+01  0.1626768E+00 -0.6151010E-01
 -0.7141780E+01 -0.7141780E+01 -0.2568960E-01  0.1739347E+00  0.2779861E+01  0.1626786E+00 -0.6155446E-01
 -0.6407370E+01 -0.7807410E+01 -0.2568960E-01  0.1739175E+00  0.2780096E+01  0.1626770E+00 -0.6151016E-01
 -0.5611260E+01 -0.8397850E+01 -0.2568960E-01  0.1739479E+00  0.2779660E+01  0.1626786E+00 -0.6159198E-01
 -0.4761110E+01 -0.8907410E+01 -0.2568960E-01  0.1739173E+00  0.2780098E+01  0.1626769E+00 -0.6150977E-01
 -0.3865100E+01 -0.9331190E+01 -0.2568960E-01  0.1739347E+00  0.2779858E+01  0.1626784E+00 -0.6155499E-01
 -0.2931870E+01 -0.9665100E+01 -0.2568960E-01  0.1739170E+00  0.2780098E+01  0.1626766E+00 -0.6150970E-01
 -0.1970410E+01 -0.9905930E+01 -0.2568960E-01  0.1739483E+00  0.2779659E+01  0.1626789E+00 -0.6159226E-01
 -0.9899710E+00 -0.1005140E+02 -0.2568960E-01  0.1739176E+00  0.2780096E+01  0.1626771E+00 -0.6151028E-01
  0.1204410E-06 -0.1010000E+02 -0.2568960E-01  0.1739346E+00  0.2779859E+01  0.1626784E+00 -0.6155478E-01
  0.9899760E+00 -0.1005140E+02 -0.2568960E-01  0.1739174E+00  0.2780096E+01  0.1626768E+00 -0.6151015E-01
  0.1970410E+01 -0.9905930E+01 -0.2568960E-01  0.1739483E+00  0.2779660E+01  0.1626789E+00 -0.6159202E-01
  0.2931880E+01 -0.9665100E+01 -0.2568960E-01  0.1739173E+00  0.2780098E+01  0.1626769E+00 -0.6150976E-01
  0.3865100E+01 -0.9331180E+01 -0.2568960E-01  0.1739345E+00  0.2779858E+01  0.1626782E+00 -0.6155498E-01
  0.4761110E+01 -0.8907410E+01 -0.2568960E-01  0.1739171E+00  0.2780098E+01  0.1626767E+00 -0.6150972E-01
  0.5611260E+01 -0.8397840E+01 -0.2568960E-01  0.1739481E+00  0.2779659E+01  0.1626787E+00 -0.6159210E-01
  0.6407370E+01 -0.7807410E+01 -0.2568960E-01  0.1739173E+00  0.2780097E+01  0.1626768E+00 -0.6151003E-01
  0.7141780E+01 -0.7141780E+01 -0.2568960E-01  0.1739346E+00  0.2779861E+01  0.1626785E+00 -0.6155442E-01
  0.7807410E+01 -0.6407370E+01 -0.2568960E-01  0.1739173E+00  0.2780097E+01  0.1626768E+00 -0.6150997E-01
  0.8397840E+01 -0.5611260E+01 -0.2568960E-01  0.1739480E+00  0.2779659E+01  0.1626786E+00 -0.6159217E-01
  0.8907410E+01 -0.4761110E+01 -0.2568960E-01  0.1739173E+00  0.2780099E+01  0.1626769E+00 -0.6150963E-01
  0.9331180E+01 -0.3865100E+01 -0.2568960E-01  0.1739348E+00  0.2779858E+01  0.1626785E+00 -0.6155504E-01
  0.9665100E+01 -0.2931870E+01 -0.2568960E-01  0.1739173E+00  0.2780098E+01  0.1626769E+00 -0.6150976E-01
  0.9905930E+01 -0.1970410E+01 -0.2568960E-01  0.1739481E+00  0.2779659E+01  0.1626787E+00 -0.6159207E-01
  0.1005140E+02 -0.9899690E+00 -0.2568960E-01  0.1739173E+00  0.2780097E+01  0.1626768E+00 -0.6151006E-01
  0.1010000E+02  0.0000000E+00 -0.1027320E+00  0.1732857E+00  0.2780813E+01  0.1621299E+00 -0.6117046E-01
  0.1005140E+02  0.9899730E+00 -0.1027320E+00  0.1732844E+00  0.2780825E+01  0.1621294E+00 -0.6116813E-01
  0.9905930E+01  0.1970410E+01 -0.1027320E+00  0.1733100E+00  0.2780457E+01  0.1621309E+00 -0.6123684E-01
  0.9665100E+01  0.2931880E+01 -0.1027320E+00  0.1732841E+00  0.2780827E+01  0.1621292E+00 -0.6116768E-01
  0.9331180E+01  0.3865100E+01 -0.1027320E+00  0.1732858E+00  0.2780812E+01  0.1621299E+00 -0.6117069E-01
  0.8907400E+01  0.4761110E+01 -0.1027320E+00  0.1732841E+00  0.2780828E+01  0.1621293E+00 -0.6116761E-01
  0.8397840E+01  0.5611260E+01 -0.1027320E+00  0.1733100E+00  0.2780457E+01  0.1621308E+00 -0.6123688E-01
  0.7807410E+01  0.6407370E+01 -0.1027320E+00  0.1732841E+00  0.2780825E+01  0.1621291E+00 -0.6116804E-01
  0.7141780E+01  0.7141780E+01 -0.1027320E+00  0.1732854E+00  0.2780814E+01  0.1621296E+00 -0.6117021E-01
  0.6407370E+01  0.7807410E+01 -0.1027320E+00  0.1732842E+00  0.2780825E+01  0.1621293E+00 -0.6116806E-01
  0.5611260E+01  0.8397840E+01 -0.1027320E+00  0.1733100E+00  0.2780457E+01  0.1621308E+00 -0.6123677E-01
  0.4761110E+01  0.8907410E+01 -0.1027320E+00  0.1732842E+00  0.2780827E+01  0.1621293E+00 -0.6116776E-01
  0.3865100E+01  0.9331180E+01 -0.1027320E+00  0.1732858E+00  0.2780812E+01  0.1621299E+00 -0.6117074E-01
  0.2931870E+01  0.9665100E+01 -0.1027320E+00  0.1732842E+00  0.2780827E+01  0.1621294E+00 -0.6116769E-01
  0.1970410E+01  0.9905930E+01 -0.1027320E+00  0.1733099E+00  0.2780457E+01  0.1621307E+00 -0.6123682E-01
  0.9899730E+00  0.1005140E+02 -0.1027320E+00  0.1732843E+00  0.2780824E+01  0.1621293E+00 -0.6116814E-01
 -0.4414850E-06  0.1010000E+02 -0.1027320E+00  0.1732857E+00  0.2780813E+01  0.1621299E+00 -0.6117052E-01
 -0.9899740E+00  0.1005140E+02 -0.1027320E+00  0.1732843E+00  0.2780825E+01  0.1621293E+00 -0.6116812E-01
 -0.1970410E+01  0.9905930E+01 -0.1027320E+00  0.1733099E+00  0.2780457E+01  0.1621307E+00 -0.6123677E-01
 -0.2931880E+01  0.9665100E+01 -0.1027320E+00  0.1732840E+00  0.2780827E+01  0.1621292E+00 -0.6116768E-01
 -0.3865100E+01  0.9331180E+01 -0.1027320E+00  0.1732858E+00  0.2780812E+01  0.1621299E+00 -0.6117073E-01
 -0.4761110E+01  0.8907400E+01 -0.1027320E+00  0.1732839E+00  0.2780826E+01  0.1621291E+00 -0.6116772E-01
 -0.5611260E+01  0.8397840E+01 -0.1027320E+00  0.1733100E+00  0.2780457E+01  0.1621308E+00 -0.6123688E-01
 -0.6407370E+01  0.7807410E+01 -0.1027320E+00  0.1732842E+00  0.2780825E+01  0.1621293E+00 -0.6116805E-01
 -0.7141780E+01  0.7141780E+01 -0.1027320E+00  0.1732855E+00  0.2780814E+01  0.1621298E+00 -0.6117021E-01
 -0.7807410E+01  0.6407370E+01 -0.1027320E+00  0.1732842E+00  0.2780825E+01  0.1621292E+00 -0.6116808E-01
 -0.8397840E+01  0.5611260E+01 -0.1027320E+00  0.1733100E+00  0.2780457E+01  0.1621308E+00 -0.6123684E-01
 -0.8907410E+01  0.4761110E+01 -0.1027320E+00  0.1732841E+00  0.2780827E+01  0.1621292E+00 -0.6116768E-01
 -0.9331180E+01  0.3865100E+01 -0.1027320E+00  0.1732857E+00  0.2780812E+01  0.1621298E+00 -0.6117076E-01
 -0.9665100E+01  0.2931880E+01 -0.1027320E+00  0.1732842E+00  0.2780827E+01  0.1621293E+00 -0.6116767E-01
 -0.9905930E+01  0.1970410E+01 -0.1027320E+00  0.1733099E+00  0.2780457E+01  0.1621307E+00 -0.6123682E-01
 -0.1005140E+02  0.9899730E+00 -0.1027320E+00  0.1732843E+00  0.2780825E+01  0.1621293E+00 -0.6116808E-01
 -0.1010000E+02 -0.8829700E-06 -0.1027320E+00  0.1732859E+00  0.2780813E+01  0.1621300E+00 -0.6117055E-01
 -0.1005140E+02 -0.9899740E+00 -0.1027320E+00  0.1732842E+00  0.2780824E+01  0.1621292E+00 -0.6116820E-01
 -0.9905930E+01 -0.1970410E+01 -0.1027320E+00  0.1733100E+00  0.2780456E+01  0.1621308E+00 -0.6123691E-01
 -0.9665100E+01 -0.2931880E+01 -0.1027320E+00  0.1732840E+00  0.2780827E+01  0.1621292E+00 -0.6116772E-01
 -0.9331180E+01 -0.3865100E+01 -0.1027320E+00  0.1732858E+00  0.2780811E+01  0.1621298E+00 -0.6117080E-01
 -0.8907400E+01 -0.4761110E+01 -0.1027320E+00  0.1732843E+00  0.2780827E+01  0.1621295E+00 -0.6116771E-01
 -0.8397840E+01 -0.5611260E+01 -0.1027320E+00  0.1733100E+00  0.2780457E+01  0.1621309E+00 -0.6123688E-01
 -0.7807400E+01 -0.6407370E+01 -0.1027320E+00  0.1732842E+00  0.2780824E+01  0.1621292E+00 -0.6116816E-01
 -0.7141780E+01 -0.7141780E+01 -0.1027320E+00  0.1732856E+00  0.2780814E+01  0.1621298E+00 -0.6117035E-01
 -0.6407370E+01 -0.7807410E+01 -0.1027320E+00  0.1732842E+00  0.2780824E+01  0.1621292E+00 -0.6116813E-01
 -0.5611260E+01 -0.8397850E+01 -0.1027320E+00  0.1733102E+00  0.2780457E+01  0.1621310E+00 -0.6123695E-01
 -0.4761110E+01 -0.8907410E+01 -0.1027320E+00  0.1732844E+00  0.2780827E+01  0.1621295E+00 -0.6116784E-01
 -0.3865100E+01 -0.9331190E+01 -0.1027320E+00  0.1732858E+00  0.2780811E+01  0.1621299E+00 -0.6117082E-01
 -0.2931870E+01 -0.9665100E+01 -0.1027320E+00  0.1732842E+00  0.2780826E+01  0.1621292E+00 -0.6116787E-01
 -0.1970410E+01 -0.9905930E+01 -0.1027320E+00  0.1733100E+00  0.2780456E+01  0.1621307E+00 -0.6123703E-01
 -0.9899710E+00 -0.1005140E+02 -0.1027320E+00  0.1732845E+00  0.2780824E+01  0.1621294E+00 -0.6116828E-01
  0.1204410E-06 -0.1010000E+02 -0.1027320E+00  0.1732859E+00  0.2780813E+01  0.1621300E+00 -0.6117065E-01
  0.9899760E+00 -0.1005140E+02 -0.1027320E+00  0.1732843E+00  0.2780824E+01  0.1621293E+00 -0.6116825E-01
  0.1970410E+01 -0.9905930E+01 -0.1027320E+00  0.1733098E+00  0.2780456E+01  0.1621307E+00 -0.6123688E-01
  0.2931880E+01 -0.9665100E+01 -0.1027320E+00  0.1732842E+00  0.2780826E+01  0.1621293E+00 -0.6116781E-01
  0.3865100E+01 -0.9331180E+01 -0.1027320E+00  0.1732858E+00  0.2780811E+01  0.1621298E+00 -0.6117092E-01
  0.4761110E+01 -0.8907410E+01 -0.1027320E+00  0.1732841E+00  0.2780826E+01  0.1621292E+00 -0.6116790E-01
  0.5611260E+01 -0.8397840E+01 -0.1027320E+00  0.1733101E+00  0.2780457E+01  0.1621309E+00 -0.6123694E-01
  0.6407370E+01 -0.7807410E+01 -0.1027320E+00  0.1732843E+00  0.2780824E+01  0.1621293E+00 -0.6116820E-01
  0.7141780E+01 -0.7141780E+01 -0.1027320E+00  0.1732855E+00  0.2780813E+01  0.1621298E+00 -0.6117038E-01
  0.7807410E+01 -0.6407370E+01 -0.1027320E+00  0.1732844E+00  0.2780825E+01  0.1621293E+00 -0.6116816E-01
  0.8397840E+01 -0.5611260E+01 -0.1027320E+00  0.1733101E+00  0.2780457E+01  0.1621309E+00 -0.6123688E-01
  0.8907410E+01 -0.4761110E+01 -0.1027320E+00  0.1732840E+00  0.2780827E+01  0.1621291E+00 -0.6116767E-01
  0.9331180E+01 -0.3865100E+01 -0.1027320E+00  0.1732858E+00  0.2780812E+01  0.1621299E+00 -0.6117079E-01
  0.9665100E+01 -0.2931870E+01 -0.1027320E+00  0.1732843E+00  0.2780826E+01  0.1621294E+00 -0.6116784E-01
  0.9905930E+01 -0.1970410E+01 -0.1027320E+00  0.1733099E+00  0.2780456E+01  0.1621307E+00 -0.6123694E-01
  0.1005140E+02 -0.9899690E+00 -0.1027320E+00  0.1732845E+00  0.2780825E+01  0.1621294E+00 -0.6116818E-01
  0.1010000E+02  0.0000000E+00 -0.2310450E+00  0.1722410E+00  0.2781960E+01  0.1612221E+00 -0.6061691E-01
  0.1005140E+02  0.9899730E+00 -0.2310450E+00  0.1722587E+00  0.2781695E+01  0.1612226E+00 -0.6066573E-01
  0.9905930E+01  0.1970410E+01 -0.2310450E+00  0.1722876E+00  0.2781274E+01  0.1612241E+00 -0.6074387E-01
  0.9665100E+01  0.2931880E+01 -0.2310450E+00  0.1722584E+00  0.2781698E+01  0.1612225E+00 -0.6066530E-01
  0.9331180E+01  0.3865100E+01 -0.2310450E+00  0.1722409E+00  0.2781958E+01  0.1612219E+00 -0.6061707E-01
  0.8907400E+01  0.4761110E+01 -0.2310450E+00  0.1722585E+00  0.2781698E+01  0.1612225E+00 -0.6066529E-01
  0.8397840E+01  0.5611260E+01 -0.2310450E+00  0.1722878E+00  0.2781274E+01  0.1612243E+00 -0.6074387E-01
  0.7807410E+01  0.6407370E+01 -0.2310450E+00  0.1722586E+00  0.2781695E+01  0.1612225E+00 -0.6066571E-01
  0.7141780E+01  0.7141780E+01 -0.2310450E+00  0.1722406E+00  0.2781962E+01  0.1612218E+00 -0.6061645E-01
  0.6407370E+01  0.7807410E+01 -0.2310450E+00  0.1722586E+00  0.2781695E+01  0.1612225E+00 -0.6066571E-01
  0.5611260E+01  0.8397840E+01 -0.2310450E+00  0.1722878E+00  0.2781275E+01  0.1612243E+00 -0.6074386E-01
  0.4761110E+01  0.8907410E+01 -0.2310450E+00  0.1722584E+00  0.2781697E+01  0.1612224E+00 -0.6066533E-01
  0.3865100E+01  0.9331180E+01 -0.2310450E+00  0.1722410E+00  0.2781959E+01  0.1612220E+00 -0.6061705E-01
  0.2931870E+01  0.9665100E+01 -0.2310450E+00  0.1722585E+00  0.2781698E+01  0.1612225E+00 -0.6066533E-01
  0.1970410E+01  0.9905930E+01 -0.2310450E+00  0.1722877E+00  0.2781274E+01  0.1612242E+00 -0.6074385E-01
  0.9899730E+00  0.1005140E+02 -0.2310450E+00  0.1722585E+00  0.2781695E+01  0.1612224E+00 -0.6066578E-01
 -0.4414850E-06  0.1010000E+02 -0.2310450E+00  0.1722408E+00  0.2781960E+01  0.1612219E+00 -0.6061679E-01
 -0.9899740E+00  0.1005140E+02 -0.2310450E+00  0.1722587E+00  0.2781695E+01  0.1612226E+00 -0.6066572E-01
 -0.1970410E+01  0.9905930E+01 -0.2310450E+00  0.1722877E+00  0.2781274E+01  0.1612242E+00 -0.6074386E-01
 -0.2931880E+01  0.9665100E+01 -0.2310450E+00  0.1722584E+00  0.2781698E+01  0.1612225E+00 -0.6066529E-01
 -0.3865100E+01  0.9331180E+01 -0.2310450E+00  0.1722409E+00  0.2781958E+01  0.1612219E+00 -0.6061707E-01
 -0.4761110E+01  0.8907400E+01 -0.2310450E+00  0.1722585E+00  0.2781698E+01  0.1612225E+00 -0.6066534E-01
 -0.5611260E+01  0.8397840E+01 -0.2310450E+00  0.1722878E+00  0.2781274E+01  0.1612243E+00 -0.6074389E-01
 -0.6407370E+01  0.7807410E+01 -0.2310450E+00  0.1722586E+00  0.2781696E+01  0.1612226E+00 -0.6066567E-01
 -0.7141780E+01  0.7141780E+01 -0.2310450E+00  0.1722408E+00  0.2781962E+01  0.1612220E+00 -0.6061652E-01
 -0.7807410E+01  0.6407370E+01 -0.2310450E+00  0.1722586E+00  0.2781695E+01  0.1612225E+00 -0.6066570E-01
 -0.8397840E+01  0.5611260E+01 -0.2310450E+00  0.1722878E+00  0.2781274E+01  0.1612242E+00 -0.6074390E-01
 -0.8907410E+01  0.4761110E+01 -0.2310450E+00  0.1722586E+00  0.2781697E+01  0.1612227E+00 -0.6066540E-01
 -0.9331180E+01  0.3865100E+01 -0.2310450E+00  0.1722410E+00  0.2781958E+01  0.1612220E+00 -0.6061709E-01
 -0.9665100E+01  0.2931880E+01 -0.2310450E+00  0.1722583E+00  0.2781697E+01  0.1612224E+00 -0.6066529E-01
 -0.9905930E+01  0.1970410E+01 -0.2310450E+00  0.1722879E+00  0.2781275E+01  0.1612243E+00 -0.6074387E-01
 -0.1005140E+02  0.9899730E+00 -0.2310450E+00  0.1722587E+00  0.2781695E+01  0.1612226E+00 -0.6066580E-01
 -0.1010000E+02 -0.8829700E-06 -0.2310450E+00  0.1722407E+00  0.2781960E+01  0.1612218E+00 -0.6061679E-01
 -0.1005140E+02 -0.9899740E+00 -0.2310450E+00  0.1722587E+00  0.2781696E+01  0.1612226E+00 -0.6066571E-01
 -0.9905930E+01 -0.1970410E+01 -0.2310450E+00  0.1722878E+00  0.2781274E+01  0.1612243E+00 -0.6074392E-01
 -0.9665100E+01 -0.2931880E+01 -0.2310450E+00  0.1722585E+00  0.2781697E+01  0.1612225E+00 -0.6066540E-01
 -0.9331180E+01 -0.3865100E+01 -0.2310450E+00  0.1722408E+00  0.2781958E+01  0.1612217E+00 -0.6061716E-01
 -0.8907400E+01 -0.4761110E+01 -0.2310450E+00  0.1722585E+00  0.2781697E+01  0.1612225E+00 -0.6066537E-01
 -0.8397840E+01 -0.5611260E+01 -0.2310450E+00  0.1722879E+00  0.2781274E+01  0.1612243E+00 -0.6074400E-01
 -0.7807400E+01 -0.6407370E+01 -0.2310450E+00  0.1722585E+00  0.2781695E+01  0.1612224E+00 -0.6066574E-01
 -0.7141780E+01 -0.7141780E+01 -0.2310450E+00  0.1722408E+00  0.2781961E+01  0.1612220E+00 -0.6061661E-01
 -0.6407370E+01 -0.7807410E+01 -0.2310450E+00  0.1722587E+00  0.2781695E+01  0.1612226E+00 -0.6066584E-01
 -0.5611260E+01 -0.8397850E+01 -0.2310450E+00  0.1722877E+00  0.2781274E+01  0.1612242E+00 -0.6074391E-01
 -0.4761110E+01 -0.8907410E+01 -0.2310450E+00  0.1722585E+00  0.2781697E+01  0.1612225E+00 -0.6066547E-01
 -0.3865100E+01 -0.9331190E+01 -0.2310450E+00  0.1722409E+00  0.2781958E+01  0.1612218E+00 -0.6061719E-01
 -0.2931870E+01 -0.9665100E+01 -0.2310450E+00  0.1722585E+00  0.2781697E+01  0.1612225E+00 -0.6066548E-01
 -0.1970410E+01 -0.9905930E+01 -0.2310450E+00  0.1722879E+00  0.2781273E+01  0.1612243E+00 -0.6074404E-01
 -0.9899710E+00 -0.1005140E+02 -0.2310450E+00  0.1722589E+00  0.2781694E+01  0.1612227E+00 -0.6066593E-01
  0.1204410E-06 -0.1010000E+02 -0.2310450E+00  0.1722408E+00  0.2781959E+01  0.1612218E+00 -0.6061695E-01
  0.9899760E+00 -0.1005140E+02 -0.2310450E+00  0.1722585E+00  0.2781694E+01  0.1612224E+00 -0.6066589E-01
  0.1970410E+01 -0.9905930E+01 -0.2310450E+00  0.1722879E+00  0.2781274E+01  0.1612243E+00 -0.6074404E-01
  0.2931880E+01 -0.9665100E+01 -0.2310450E+00  0.1722585E+00  0.2781696E+01  0.1612225E+00 -0.6066551E-01
  0.3865100E+01 -0.9331180E+01 -0.2310450E+00  0.1722409E+00  0.2781957E+01  0.1612218E+00 -0.6061726E-01
  0.4761110E+01 -0.8907410E+01 -0.2310450E+00  0.1722586E+00  0.2781696E+01  0.1612225E+00 -0.6066553E-01
  0.5611260E+01 -0.8397840E+01 -0.2310450E+00  0.1722879E+00  0.2781274E+01  0.1612243E+00 -0.6074402E-01
  0.6407370E+01 -0.7807410E+01 -0.2310450E+00  0.1722587E+00  0.2781695E+01  0.1612226E+00 -0.6066580E-01
  0.7141780E+01 -0.7141780E+01 -0.2310450E+00  0.1722406E+00  0.2781961E+01  0.1612218E+00 -0.6061659E-01
  0.7807410E+01 -0.6407370E+01 -0.2310450E+00  0.1722586E+00  0.2781695E+01  0.1612225E+00 -0.6066574E-01
  0.8397840E+01 -0.5611260E+01 -0.2310450E+00  0.1722876E+00  0.2781273E+01  0.1612240E+00 -0.6074401E-01
  0.8907410E+01 -0.4761110E+01 -0.2310450E+00  0.1722585E+00  0.2781697E+01  0.1612225E+00 -0.6066539E-01
  0.9331180E+01 -0.3865100E+01 -0.2310450E+00  0.1722410E+00  0.2781958E+01  0.1612220E+00 -0.6061719E-01
  0.9665100E+01 -0.2931870E+01 -0.2310450E+00  0.1722585E+00  0.2781697E+01  0.1612225E+00 -0.6066540E-01
  0.9905930E+01 -0.1970410E+01 -0.2310450E+00  0.1722879E+00  0.2781274E+01  0.1612244E+00 -0.6074395E-01
  0.1005140E+02 -0.9899690E+00 -0.2310450E+00  0.1722587E+00  0.2781695E+01  0.1612225E+00 -0.6066583E-01
  0.1010000E+02  0.0000000E+00 -0.4105000E+00  0.1708383E+00  0.2782865E+01  0.1599635E+00 -0.5997849E-01
  0.1005140E+02  0.9899730E+00 -0.4105000E+00  0.1708693E+00  0.2782405E+01  0.1599649E+00 -0.6006288E-01
  0.9905930E+01  0.1970410E+01 -0.4105000E+00  0.1708935E+00  0.2782053E+01  0.1599664E+00 -0.6012775E-01
  0.9665100E+01  0.2931880E+01 -0.4105000E+00  0.1708691E+00  0.2782408E+01  0.1599648E+00 -0.6006242E-01
  0.9331180E+01  0.3865100E+01 -0.4105000E+00  0.1708383E+00  0.2782864E+01  0.1599634E+00 -0.5997866E-01
  0.8907400E+01  0.4761110E+01 -0.4105000E+00  0.1708691E+00  0.2782408E+01  0.1599648E+00 -0.6006245E-01
  0.8397840E+01  0.5611260E+01 -0.4105000E+00  0.1708934E+00  0.2782053E+01  0.1599662E+00 -0.6012775E-01
  0.7807410E+01  0.6407370E+01 -0.4105000E+00  0.1708692E+00  0.2782406E+01  0.1599648E+00 -0.6006279E-01
  0.7141780E+01  0.7141780E+01 -0.4105000E+00  0.1708380E+00  0.2782866E+01  0.1599633E+00 -0.5997815E-01
  0.6407370E+01  0.7807410E+01 -0.4105000E+00  0.1708692E+00  0.2782406E+01  0.1599648E+00 -0.6006277E-01
  0.5611260E+01  0.8397840E+01 -0.4105000E+00  0.1708933E+00  0.2782053E+01  0.1599662E+00 -0.6012773E-01
  0.4761110E+01  0.8907410E+01 -0.4105000E+00  0.1708691E+00  0.2782408E+01  0.1599648E+00 -0.6006245E-01
  0.3865100E+01  0.9331180E+01 -0.4105000E+00  0.1708383E+00  0.2782864E+01  0.1599634E+00 -0.5997864E-01
  0.2931870E+01  0.9665100E+01 -0.4105000E+00  0.1708691E+00  0.2782408E+01  0.1599648E+00 -0.6006241E-01
  0.1970410E+01  0.9905930E+01 -0.4105000E+00  0.1708933E+00  0.2782052E+01  0.1599661E+00 -0.6012778E-01
  0.9899730E+00  0.1005140E+02 -0.4105000E+00  0.1708694E+00  0.2782406E+01  0.1599650E+00 -0.6006286E-01
 -0.4414850E-06  0.1010000E+02 -0.4105000E+00  0.1708381E+00  0.2782865E+01  0.1599632E+00 -0.5997842E-01
 -0.9899740E+00  0.1005140E+02 -0.4105000E+00  0.1708693E+00  0.2782405E+01  0.1599649E+00 -0.6006286E-01
 -0.1970410E+01  0.9905930E+01 -0.4105000E+00  0.1708934E+00  0.2782053E+01  0.1599663E+00 -0.6012775E-01
 -0.2931880E+01  0.9665100E+01 -0.4105000E+00  0.1708691E+00  0.2782408E+01  0.1599648E+00 -0.6006243E-01
 -0.3865100E+01  0.9331180E+01 -0.4105000E+00  0.1708384E+00  0.2782864E+01  0.1599635E+00 -0.5997865E-01
 -0.4761110E+01  0.8907400E+01 -0.4105000E+00  0.1708690E+00  0.2782407E+01  0.1599647E+00 -0.6006244E-01
 -0.5611260E+01  0.8397840E+01 -0.4105000E+00  0.1708933E+00  0.2782053E+01  0.1599662E+00 -0.6012769E-01
 -0.6407370E+01  0.7807410E+01 -0.4105000E+00  0.1708692E+00  0.2782406E+01  0.1599648E+00 -0.6006272E-01
 -0.7141780E+01  0.7141780E+01 -0.4105000E+00  0.1708380E+00  0.2782866E+01  0.1599633E+00 -0.5997824E-01