VARIABLES="w (rad/s)"
"abs(F   1   1)" "angle(F   1   1)"
"abs(F   1   2)" "angle(F   1   2)"
"abs(F   1   3)" "angle(F   1   3)"
"abs(F   1   4)" "angle(F   1   4)"
"abs(F   1   5)" "angle(F   1   5)"
"abs(F   1   6)" "angle(F   1   6)"
Zone t="Diffraction force - beta =   0.000 deg",I=     5,F=POINT
  0.5236000E+00  0.5703668E+06 -0.1512877E+01  0.2940878E+00  0.2963076E-01  0.4314705E+06 -0.2805815E+01  0.1043165E+01  0.2551716E+01  0.7278934E+06  0.1597379E+01  0.3640115E-02 -0.2426242E+01
  0.5890500E+00  0.6916549E+06 -0.1474746E+01  0.1479425E+00 -0.2169419E+01  0.5040971E+06 -0.2780457E+01  0.4228718E+00  0.1170797E+01  0.8886712E+06  0.1616400E+01  0.4562544E-02 -0.2362649E+01
  0.6545000E+00  0.8297499E+06 -0.1415337E+01  0.2046200E+00 -0.2233122E+01  0.5637936E+06 -0.2747463E+01  0.1093576E+00  0.2806638E+01  0.1063488E+07  0.1647569E+01  0.5571246E-02 -0.2290947E+01
  0.7199500E+00  0.9658076E+06 -0.1330849E+01  0.2324902E+00 -0.2306470E+01  0.6057979E+06 -0.2720582E+01  0.2140345E+00  0.2449106E+01  0.1245071E+07  0.1692423E+01  0.6546990E-02 -0.2222681E+01
  0.7854000E+00  0.1084911E+07 -0.1222558E+01  0.3896946E+00 -0.1998021E+01  0.6291902E+06 -0.2693970E+01  0.1312615E+00  0.2884902E+01  0.1402149E+07  0.1749216E+01  0.7559031E-02 -0.2156060E+01
Zone t="Diffraction force - beta =   9.000 deg",I=     5,F=POINT
  0.5236000E+00  0.5633447E+06 -0.1512877E+01  0.8922508E+05 -0.1512873E+01  0.4314707E+06 -0.2805815E+01  0.1138672E+06 -0.1544221E+01  0.7189316E+06  0.1597380E+01  0.2393414E-02 -0.1659732E+01
  0.5890500E+00  0.6831394E+06 -0.1474746E+01  0.1081987E+06 -0.1474746E+01  0.5040970E+06 -0.2780457E+01  0.1390184E+06 -0.1525189E+01  0.8777307E+06  0.1616401E+01  0.3774713E-02 -0.1017544E+01
  0.6545000E+00  0.8195344E+06 -0.1415337E+01  0.1298016E+06 -0.1415339E+01  0.5637936E+06 -0.2747463E+01  0.1663661E+06 -0.1494022E+01  0.1050395E+07  0.1647569E+01  0.8118520E-02 -0.5426568E+00
  0.7199500E+00  0.9539169E+06 -0.1330849E+01  0.1510857E+06 -0.1330850E+01  0.6057978E+06 -0.2720582E+01  0.1947717E+06 -0.1449169E+01  0.1229742E+07  0.1692423E+01  0.1748538E-01 -0.3033473E+00
  0.7854000E+00  0.1071554E+07 -0.1222558E+01  0.1697178E+06 -0.1222560E+01  0.6291902E+06 -0.2693970E+01  0.2193446E+06 -0.1392378E+01  0.1384886E+07  0.1749217E+01  0.3512499E-01 -0.1809178E+00
Zone t="Diffraction force - beta =  18.000 deg",I=     5,F=POINT
  0.5236000E+00  0.5424511E+06 -0.1512876E+01  0.1762531E+06 -0.1512875E+01  0.4314708E+06 -0.2805816E+01  0.2249310E+06 -0.1544215E+01  0.6922679E+06  0.1597380E+01  0.2738369E-02 -0.1059185E+01
  0.5890500E+00  0.6578031E+06 -0.1474746E+01  0.2137330E+06 -0.1474746E+01  0.5040972E+06 -0.2780458E+01  0.2746140E+06 -0.1525191E+01  0.8451768E+06  0.1616400E+01  0.6137379E-02 -0.5517138E+00
  0.6545000E+00  0.7891391E+06 -0.1415337E+01  0.2564069E+06 -0.1415338E+01  0.5637935E+06 -0.2747463E+01  0.3286358E+06 -0.1494024E+01  0.1011437E+07  0.1647569E+01  0.1416196E-01 -0.3007552E+00
  0.7199500E+00  0.9185374E+06 -0.1330849E+01  0.2984509E+06 -0.1330850E+01  0.6057978E+06 -0.2720583E+01  0.3847477E+06 -0.1449170E+01  0.1184132E+07  0.1692423E+01  0.2993578E-01 -0.1756242E+00
  0.7854000E+00  0.1031811E+07 -0.1222558E+01  0.3352562E+06 -0.1222559E+01  0.6291902E+06 -0.2693970E+01  0.4332886E+06 -0.1392377E+01  0.1333523E+07  0.1749216E+01  0.5881216E-01 -0.1071460E+00
Zone t="Diffraction force - beta =  27.000 deg",I=     5,F=POINT
  0.5236000E+00  0.5082004E+06 -0.1512876E+01  0.2589410E+06 -0.1512875E+01  0.4314708E+06 -0.2805817E+01  0.3304563E+06 -0.1544214E+01  0.6485581E+06  0.1597380E+01  0.2740331E-02 -0.1059943E+01
  0.5890500E+00  0.6162691E+06 -0.1474746E+01  0.3140050E+06 -0.1474745E+01  0.5040972E+06 -0.2780458E+01  0.4034480E+06 -0.1525192E+01  0.7918119E+06  0.1616401E+01  0.6128364E-02 -0.5509792E+00
  0.6545000E+00  0.7393126E+06 -0.1415337E+01  0.3766984E+06 -0.1415338E+01  0.5637936E+06 -0.2747463E+01  0.4828137E+06 -0.1494024E+01  0.9475751E+06  0.1647569E+01  0.1419096E-01 -0.3018851E+00
  0.7199500E+00  0.8605410E+06 -0.1330849E+01  0.4384677E+06 -0.1330849E+01  0.6057978E+06 -0.2720582E+01  0.5652502E+06 -0.1449170E+01  0.1109366E+07  0.1692423E+01  0.2991925E-01 -0.1760380E+00
  0.7854000E+00  0.9666626E+06 -0.1222558E+01  0.4925397E+06 -0.1222559E+01  0.6291902E+06 -0.2693970E+01  0.6365628E+06 -0.1392377E+01  0.1249325E+07  0.1749216E+01  0.5882206E-01 -0.1072748E+00
Zone t="Diffraction force - beta =  36.000 deg",I=     5,F=POINT
  0.5236000E+00  0.4614363E+06 -0.1512876E+01  0.3352532E+06 -0.1512875E+01  0.4314709E+06 -0.2805817E+01  0.4278448E+06 -0.1544214E+01  0.5888780E+06  0.1597380E+01  0.2392029E-02 -0.1663725E+01
  0.5890500E+00  0.5595604E+06 -0.1474745E+01  0.4065444E+06 -0.1474745E+01  0.5040973E+06 -0.2780458E+01  0.5223472E+06 -0.1525192E+01  0.7189500E+06  0.1616401E+01  0.3774822E-02 -0.1015222E+01
  0.6545000E+00  0.6712818E+06 -0.1415337E+01  0.4877144E+06 -0.1415337E+01  0.5637936E+06 -0.2747463E+01  0.6251021E+06 -0.1494023E+01  0.8603798E+06  0.1647569E+01  0.8144889E-02 -0.5422364E+00
  0.7199500E+00  0.7813552E+06 -0.1330849E+01  0.5676875E+06 -0.1330850E+01  0.6057980E+06 -0.2720583E+01  0.7318333E+06 -0.1449170E+01  0.1007283E+07  0.1692423E+01  0.1749228E-01 -0.3034523E+00
  0.7854000E+00  0.8777114E+06 -0.1222558E+01  0.6376952E+06 -0.1222559E+01  0.6291902E+06 -0.2693970E+01  0.8241631E+06 -0.1392377E+01  0.1134363E+07  0.1749216E+01  0.3513016E-01 -0.1799425E+00
Zone t="Diffraction force - beta =  45.000 deg",I=     5,F=POINT
  0.5236000E+00  0.4033100E+06 -0.1512876E+01  0.4033103E+06 -0.1512875E+01  0.4314712E+06 -0.2805818E+01  0.5146979E+06 -0.1544213E+01  0.5146982E+06  0.1597380E+01  0.3645677E-02 -0.2428977E+01
  0.5890500E+00  0.4890739E+06 -0.1474745E+01  0.4890736E+06 -0.1474745E+01  0.5040974E+06 -0.2780459E+01  0.6283851E+06 -0.1525192E+01  0.6283858E+06  0.1616400E+01  0.4568548E-02 -0.2363264E+01
  0.6545000E+00  0.5867222E+06 -0.1415338E+01  0.5867215E+06 -0.1415338E+01  0.5637937E+06 -0.2747463E+01  0.7519994E+06 -0.1494023E+01  0.7520000E+06  0.1647569E+01  0.5589029E-02 -0.2289394E+01
  0.7199500E+00  0.6829294E+06 -0.1330849E+01  0.6829292E+06 -0.1330849E+01  0.6057980E+06 -0.2720583E+01  0.8803976E+06 -0.1449170E+01  0.8803984E+06  0.1692423E+01  0.6512629E-02 -0.2218052E+01
  0.7854000E+00  0.7671479E+06 -0.1222559E+01  0.7671479E+06 -0.1222558E+01  0.6291903E+06 -0.2693970E+01  0.9914691E+06 -0.1392376E+01  0.9914698E+06  0.1749216E+01  0.7546774E-02 -0.2152609E+01
Zone t="Diffraction force - beta =  54.000 deg",I=     5,F=POINT
  0.5236000E+00  0.3352530E+06 -0.1512876E+01  0.4614365E+06 -0.1512875E+01  0.4314711E+06 -0.2805818E+01  0.5888782E+06 -0.1544213E+01  0.4278448E+06  0.1597380E+01  0.5786746E-02 -0.2716608E+01
  0.5890500E+00  0.4065447E+06 -0.1474746E+01  0.5595604E+06 -0.1474745E+01  0.5040973E+06 -0.2780459E+01  0.7189502E+06 -0.1525192E+01  0.5223480E+06  0.1616401E+01  0.9074459E-02 -0.2780409E+01
  0.6545000E+00  0.4877147E+06 -0.1415337E+01  0.6712814E+06 -0.1415337E+01  0.5637938E+06 -0.2747463E+01  0.8603801E+06 -0.1494023E+01  0.6251029E+06  0.1647569E+01  0.1488795E-01 -0.2855421E+01
  0.7199500E+00  0.5676872E+06 -0.1330849E+01  0.7813545E+06 -0.1330849E+01  0.6057979E+06 -0.2720583E+01  0.1007282E+07 -0.1449170E+01  0.7318343E+06  0.1692424E+01  0.2514797E-01 -0.2932562E+01
  0.7854000E+00  0.6376944E+06 -0.1222558E+01  0.8777116E+06 -0.1222559E+01  0.6291902E+06 -0.2693970E+01  0.1134363E+07 -0.1392376E+01  0.8241626E+06  0.1749216E+01  0.4328084E-01 -0.2995613E+01
Zone t="Diffraction force - beta =  63.000 deg",I=     5,F=POINT
  0.5236000E+00  0.2589409E+06 -0.1512876E+01  0.5082006E+06 -0.1512875E+01  0.4314711E+06 -0.2805819E+01  0.6485578E+06 -0.1544212E+01  0.3304564E+06  0.1597379E+01  0.7250065E-02 -0.2806453E+01
  0.5890500E+00  0.3140046E+06 -0.1474746E+01  0.6162689E+06 -0.1474745E+01  0.5040975E+06 -0.2780460E+01  0.7918119E+06 -0.1525191E+01  0.4034481E+06  0.1616402E+01  0.1216106E-01 -0.2874353E+01
  0.6545000E+00  0.3766985E+06 -0.1415337E+01  0.7393121E+06 -0.1415337E+01  0.5637936E+06 -0.2747464E+01  0.9475742E+06 -0.1494023E+01  0.4828138E+06  0.1647569E+01  0.2129775E-01 -0.2943897E+01
  0.7199500E+00  0.4384675E+06 -0.1330850E+01  0.8605411E+06 -0.1330849E+01  0.6057978E+06 -0.2720583E+01  0.1109366E+07 -0.1449169E+01  0.5652503E+06  0.1692424E+01  0.3777249E-01 -0.3002243E+01
  0.7854000E+00  0.4925395E+06 -0.1222558E+01  0.9666628E+06 -0.1222558E+01  0.6291903E+06 -0.2693970E+01  0.1249324E+07 -0.1392377E+01  0.6365627E+06  0.1749216E+01  0.6707966E-01 -0.3047650E+01
Zone t="Diffraction force - beta =  72.000 deg",I=     5,F=POINT
  0.5236000E+00  0.1762527E+06 -0.1512876E+01  0.5424512E+06 -0.1512875E+01  0.4314712E+06 -0.2805819E+01  0.6922676E+06 -0.1544213E+01  0.2249310E+06  0.1597379E+01  0.7248213E-02 -0.2807940E+01
  0.5890500E+00  0.2137330E+06 -0.1474746E+01  0.6578024E+06 -0.1474745E+01  0.5040973E+06 -0.2780460E+01  0.8451764E+06 -0.1525191E+01  0.2746145E+06  0.1616402E+01  0.1216752E-01 -0.2873449E+01
  0.6545000E+00  0.2564067E+06 -0.1415337E+01  0.7891388E+06 -0.1415337E+01  0.5637935E+06 -0.2747464E+01  0.1011436E+07 -0.1494023E+01  0.3286361E+06  0.1647570E+01  0.2128918E-01 -0.2942661E+01
  0.7199500E+00  0.2984510E+06 -0.1330850E+01  0.9185376E+06 -0.1330850E+01  0.6057980E+06 -0.2720583E+01  0.1184132E+07 -0.1449169E+01  0.3847480E+06  0.1692425E+01  0.3776459E-01 -0.3001931E+01
  0.7854000E+00  0.3352561E+06 -0.1222558E+01  0.1031812E+07 -0.1222558E+01  0.6291903E+06 -0.2693970E+01  0.1333524E+07 -0.1392377E+01  0.4332888E+06  0.1749216E+01  0.6711395E-01 -0.3047389E+01
Zone t="Diffraction force - beta =  81.000 deg",I=     5,F=POINT
  0.5236000E+00  0.8922473E+05 -0.1512877E+01  0.5633446E+06 -0.1512875E+01  0.4314712E+06 -0.2805819E+01  0.7189319E+06 -0.1544213E+01  0.1138673E+06  0.1597374E+01  0.5797822E-02 -0.2718180E+01
  0.5890500E+00  0.1081985E+06 -0.1474746E+01  0.6831392E+06 -0.1474745E+01  0.5040975E+06 -0.2780460E+01  0.8777301E+06 -0.1525191E+01  0.1390185E+06  0.1616401E+01  0.9062759E-02 -0.2780919E+01
  0.6545000E+00  0.1298014E+06 -0.1415337E+01  0.8195339E+06 -0.1415337E+01  0.5637935E+06 -0.2747464E+01  0.1050394E+07 -0.1494023E+01  0.1663664E+06  0.1647569E+01  0.1491211E-01 -0.2857419E+01
  0.7199500E+00  0.1510857E+06 -0.1330850E+01  0.9539164E+06 -0.1330849E+01  0.6057980E+06 -0.2720583E+01  0.1229740E+07 -0.1449169E+01  0.1947718E+06  0.1692425E+01  0.2520134E-01 -0.2931049E+01
  0.7854000E+00  0.1697177E+06 -0.1222559E+01  0.1071554E+07 -0.1222559E+01  0.6291903E+06 -0.2693970E+01  0.1384887E+07 -0.1392377E+01  0.2193448E+06  0.1749217E+01  0.4335451E-01 -0.2996127E+01
Zone t="Diffraction force - beta =  90.000 deg",I=     5,F=POINT
  0.5236000E+00  0.3487439E+00  0.1722148E+01  0.5703671E+06 -0.1512875E+01  0.4314712E+06 -0.2805819E+01  0.7278932E+06 -0.1544212E+01  0.1027592E+01 -0.3034199E+00  0.3651001E-02 -0.2426513E+01
  0.5890500E+00  0.2664813E+00  0.2334167E+01  0.6916544E+06 -0.1474745E+01  0.5040975E+06 -0.2780460E+01  0.8886712E+06 -0.1525191E+01  0.4813551E+00 -0.1133343E+01  0.4581150E-02 -0.2363080E+01
  0.6545000E+00  0.2020719E+00  0.2330028E+01  0.8297492E+06 -0.1415337E+01  0.5637938E+06 -0.2747464E+01  0.1063487E+07 -0.1494023E+01  0.2586430E+00 -0.3110054E+01  0.5570663E-02 -0.2292910E+01
  0.7199500E+00  0.2433354E+00  0.2499998E+01  0.9658069E+06 -0.1330849E+01  0.6057979E+06 -0.2720583E+01  0.1245070E+07 -0.1449169E+01  0.2868600E+00  0.2843217E+01  0.6580092E-02 -0.2220526E+01
  0.7854000E+00  0.2021214E+00 -0.9569533E+00  0.1084911E+07 -0.1222558E+01  0.6291903E+06 -0.2693970E+01  0.1402150E+07 -0.1392376E+01  0.2319798E+00  0.1438662E+01  0.7552322E-02 -0.2156883E+01
Zone t="Diffraction force - beta =  99.000 deg",I=     5,F=POINT
  0.5236000E+00  0.8922536E+05  0.1628717E+01  0.5633447E+06 -0.1512875E+01  0.4314712E+06 -0.2805819E+01  0.7189319E+06 -0.1544212E+01  0.1138681E+06 -0.1544204E+01  0.2386144E-02 -0.1665949E+01
  0.5890500E+00  0.1081989E+06  0.1666849E+01  0.6831390E+06 -0.1474745E+01  0.5040977E+06 -0.2780460E+01  0.8777301E+06 -0.1525192E+01  0.1390192E+06 -0.1525193E+01  0.3782283E-02 -0.1017933E+01
  0.6545000E+00  0.1298016E+06  0.1726256E+01  0.8195339E+06 -0.1415337E+01  0.5637938E+06 -0.2747464E+01  0.1050394E+07 -0.1494023E+01  0.1663662E+06 -0.1494021E+01  0.8123554E-02 -0.5460405E+00
  0.7199500E+00  0.1510857E+06  0.1810745E+01  0.9539165E+06 -0.1330849E+01  0.6057980E+06 -0.2720583E+01  0.1229742E+07 -0.1449169E+01  0.1947720E+06 -0.1449170E+01  0.1748380E-01 -0.3043762E+00
  0.7854000E+00  0.1697171E+06  0.1919034E+01  0.1071554E+07 -0.1222558E+01  0.6291904E+06 -0.2693971E+01  0.1384886E+07 -0.1392376E+01  0.2193444E+06 -0.1392376E+01  0.3509896E-01 -0.1806622E+00
Zone t="Diffraction force - beta = 108.000 deg",I=     5,F=POINT
  0.5236000E+00  0.1762534E+06  0.1628717E+01  0.5424509E+06 -0.1512875E+01  0.4314712E+06 -0.2805819E+01  0.6922678E+06 -0.1544212E+01  0.2249320E+06 -0.1544208E+01  0.2744588E-02 -0.1058826E+01
  0.5890500E+00  0.2137335E+06  0.1666849E+01  0.6578024E+06 -0.1474745E+01  0.5040975E+06 -0.2780460E+01  0.8451765E+06 -0.1525191E+01  0.2746151E+06 -0.1525192E+01  0.6118149E-02 -0.5522757E+00
  0.6545000E+00  0.2564070E+06  0.1726256E+01  0.7891386E+06 -0.1415337E+01  0.5637938E+06 -0.2747464E+01  0.1011437E+07 -0.1494024E+01  0.3286360E+06 -0.1494025E+01  0.1417088E-01 -0.2992569E+00
  0.7199500E+00  0.2984513E+06  0.1810744E+01  0.9185371E+06 -0.1330849E+01  0.6057981E+06 -0.2720584E+01  0.1184132E+07 -0.1449170E+01  0.3847482E+06 -0.1449169E+01  0.2994858E-01 -0.1748792E+00
  0.7854000E+00  0.3352557E+06  0.1919034E+01  0.1031811E+07 -0.1222558E+01  0.6291906E+06 -0.2693971E+01  0.1333523E+07 -0.1392376E+01  0.4332878E+06 -0.1392376E+01  0.5883051E-01 -0.1069711E+00
Zone t="Diffraction force - beta = 117.000 deg",I=     5,F=POINT
  0.5236000E+00  0.2589416E+06  0.1628717E+01  0.5082005E+06 -0.1512875E+01  0.4314709E+06 -0.2805819E+01  0.6485579E+06 -0.1544212E+01  0.3304572E+06 -0.1544209E+01  0.2740446E-02 -0.1058042E+01
  0.5890500E+00  0.3140050E+06  0.1666848E+01  0.6162684E+06 -0.1474745E+01  0.5040976E+06 -0.2780460E+01  0.7918121E+06 -0.1525192E+01  0.4034489E+06 -0.1525192E+01  0.6135806E-02 -0.5501158E+00
  0.6545000E+00  0.3766989E+06  0.1726256E+01  0.7393122E+06 -0.1415337E+01  0.5637939E+06 -0.2747464E+01  0.9475743E+06 -0.1494023E+01  0.4828138E+06 -0.1494023E+01  0.1417776E-01 -0.3006341E+00
  0.7199500E+00  0.4384677E+06  0.1810744E+01  0.8605406E+06 -0.1330849E+01  0.6057982E+06 -0.2720584E+01  0.1109366E+07 -0.1449169E+01  0.5652508E+06 -0.1449170E+01  0.2992600E-01 -0.1758560E+00
  0.7854000E+00  0.4925392E+06  0.1919034E+01  0.9666623E+06 -0.1222558E+01  0.6291902E+06 -0.2693971E+01  0.1249324E+07 -0.1392376E+01  0.6365628E+06 -0.1392376E+01  0.5882042E-01 -0.1069727E+00
Zone t="Diffraction force - beta = 126.000 deg",I=     5,F=POINT
  0.5236000E+00  0.3352538E+06  0.1628717E+01  0.4614364E+06 -0.1512875E+01  0.4314709E+06 -0.2805818E+01  0.5888783E+06 -0.1544212E+01  0.4278456E+06 -0.1544209E+01  0.2390418E-02 -0.1656678E+01
  0.5890500E+00  0.4065448E+06  0.1666848E+01  0.5595601E+06 -0.1474745E+01  0.5040975E+06 -0.2780460E+01  0.7189504E+06 -0.1525191E+01  0.5223484E+06 -0.1525192E+01  0.3762732E-02 -0.1008262E+01
  0.6545000E+00  0.4877149E+06  0.1726256E+01  0.6712814E+06 -0.1415337E+01  0.5637939E+06 -0.2747465E+01  0.8603792E+06 -0.1494023E+01  0.6251027E+06 -0.1494023E+01  0.8146261E-02 -0.5414485E+00
  0.7199500E+00  0.5676878E+06  0.1810744E+01  0.7813546E+06 -0.1330849E+01  0.6057982E+06 -0.2720584E+01  0.1007282E+07 -0.1449169E+01  0.7318344E+06 -0.1449169E+01  0.1751429E-01 -0.3039835E+00
  0.7854000E+00  0.6376946E+06  0.1919034E+01  0.8777114E+06 -0.1222559E+01  0.6291904E+06 -0.2693971E+01  0.1134363E+07 -0.1392376E+01  0.8241629E+06 -0.1392376E+01  0.3513689E-01 -0.1800288E+00
Zone t="Diffraction force - beta = 135.000 deg",I=     5,F=POINT
  0.5236000E+00  0.4033106E+06  0.1628717E+01  0.4033103E+06 -0.1512875E+01  0.4314709E+06 -0.2805818E+01  0.5146985E+06 -0.1544213E+01  0.5146989E+06 -0.1544210E+01  0.3640424E-02 -0.2426004E+01
  0.5890500E+00  0.4890742E+06  0.1666848E+01  0.4890736E+06 -0.1474745E+01  0.5040976E+06 -0.2780460E+01  0.6283858E+06 -0.1525191E+01  0.6283862E+06 -0.1525192E+01  0.4562764E-02 -0.2359171E+01
  0.6545000E+00  0.5867219E+06  0.1726256E+01  0.5867214E+06 -0.1415337E+01  0.5637939E+06 -0.2747465E+01  0.7519999E+06 -0.1494023E+01  0.7519997E+06 -0.1494024E+01  0.5586900E-02 -0.2290055E+01
  0.7199500E+00  0.6829293E+06  0.1810744E+01  0.6829289E+06 -0.1330849E+01  0.6057984E+06 -0.2720584E+01  0.8803977E+06 -0.1449170E+01  0.8803980E+06 -0.1449170E+01  0.6556807E-02 -0.2214926E+01
  0.7854000E+00  0.7671481E+06  0.1919034E+01  0.7671479E+06 -0.1222558E+01  0.6291904E+06 -0.2693971E+01  0.9914684E+06 -0.1392376E+01  0.9914689E+06 -0.1392376E+01  0.7531114E-02 -0.2152793E+01
Zone t="Diffraction force - beta = 144.000 deg",I=     5,F=POINT
  0.5236000E+00  0.4614367E+06  0.1628717E+01  0.3352532E+06 -0.1512876E+01  0.4314706E+06 -0.2805817E+01  0.4278454E+06 -0.1544213E+01  0.5888786E+06 -0.1544209E+01  0.5794083E-02 -0.2713964E+01
  0.5890500E+00  0.5595608E+06  0.1666848E+01  0.4065443E+06 -0.1474745E+01  0.5040975E+06 -0.2780460E+01  0.5223482E+06 -0.1525191E+01  0.7189503E+06 -0.1525192E+01  0.9073981E-02 -0.2780019E+01
  0.6545000E+00  0.6712818E+06  0.1726256E+01  0.4877142E+06 -0.1415337E+01  0.5637940E+06 -0.2747465E+01  0.6251023E+06 -0.1494023E+01  0.8603798E+06 -0.1494023E+01  0.1491112E-01 -0.2856584E+01
  0.7199500E+00  0.7813551E+06  0.1810744E+01  0.5676871E+06 -0.1330849E+01  0.6057981E+06 -0.2720584E+01  0.7318341E+06 -0.1449169E+01  0.1007283E+07 -0.1449169E+01  0.2516911E-01 -0.2931612E+01
  0.7854000E+00  0.8777108E+06  0.1919035E+01  0.6376946E+06 -0.1222558E+01  0.6291903E+06 -0.2693971E+01  0.8241627E+06 -0.1392376E+01  0.1134363E+07 -0.1392376E+01  0.4328036E-01 -0.2996062E+01
Zone t="Diffraction force - beta = 153.000 deg",I=     5,F=POINT
  0.5236000E+00  0.5082007E+06  0.1628717E+01  0.2589411E+06 -0.1512875E+01  0.4314706E+06 -0.2805817E+01  0.3304572E+06 -0.1544214E+01  0.6485584E+06 -0.1544210E+01  0.7255129E-02 -0.2806741E+01
  0.5890500E+00  0.6162694E+06  0.1666848E+01  0.3140044E+06 -0.1474745E+01  0.5040976E+06 -0.2780460E+01  0.4034486E+06 -0.1525191E+01  0.7918124E+06 -0.1525192E+01  0.1214712E-01 -0.2873641E+01
  0.6545000E+00  0.7393128E+06  0.1726256E+01  0.3766982E+06 -0.1415337E+01  0.5637940E+06 -0.2747465E+01  0.4828132E+06 -0.1494023E+01  0.9475748E+06 -0.1494023E+01  0.2128355E-01 -0.2943283E+01
  0.7199500E+00  0.8605411E+06  0.1810744E+01  0.4384672E+06 -0.1330849E+01  0.6057982E+06 -0.2720584E+01  0.5652501E+06 -0.1449169E+01  0.1109366E+07 -0.1449169E+01  0.3774494E-01 -0.3002505E+01
  0.7854000E+00  0.9666620E+06  0.1919035E+01  0.4925388E+06 -0.1222559E+01  0.6291903E+06 -0.2693971E+01  0.6365624E+06 -0.1392377E+01  0.1249325E+07 -0.1392376E+01  0.6707346E-01 -0.3047713E+01
Zone t="Diffraction force - beta = 162.000 deg",I=     5,F=POINT
  0.5236000E+00  0.5424512E+06  0.1628716E+01  0.1762531E+06 -0.1512875E+01  0.4314705E+06 -0.2805816E+01  0.2249318E+06 -0.1544215E+01  0.6922684E+06 -0.1544211E+01  0.7255694E-02 -0.2806864E+01
  0.5890500E+00  0.6578029E+06  0.1666848E+01  0.2137330E+06 -0.1474745E+01  0.5040974E+06 -0.2780459E+01  0.2746151E+06 -0.1525190E+01  0.8451771E+06 -0.1525192E+01  0.1216664E-01 -0.2874409E+01
  0.6545000E+00  0.7891391E+06  0.1726256E+01  0.2564067E+06 -0.1415337E+01  0.5637941E+06 -0.2747465E+01  0.3286358E+06 -0.1494022E+01  0.1011437E+07 -0.1494023E+01  0.2127110E-01 -0.2942725E+01
  0.7199500E+00  0.9185379E+06  0.1810744E+01  0.2984510E+06 -0.1330850E+01  0.6057981E+06 -0.2720584E+01  0.3847480E+06 -0.1449169E+01  0.1184133E+07 -0.1449169E+01  0.3776383E-01 -0.3001888E+01
  0.7854000E+00  0.1031811E+07  0.1919035E+01  0.3352557E+06 -0.1222558E+01  0.6291904E+06 -0.2693971E+01  0.4332881E+06 -0.1392377E+01  0.1333523E+07 -0.1392376E+01  0.6712393E-01 -0.3047448E+01
Zone t="Diffraction force - beta = 171.000 deg",I=     5,F=POINT
  0.5236000E+00  0.5633448E+06  0.1628716E+01  0.8922506E+05 -0.1512873E+01  0.4314705E+06 -0.2805815E+01  0.1138681E+06 -0.1544217E+01  0.7189320E+06 -0.1544210E+01  0.5802524E-02 -0.2715888E+01
  0.5890500E+00  0.6831396E+06  0.1666848E+01  0.1081985E+06 -0.1474746E+01  0.5040975E+06 -0.2780459E+01  0.1390192E+06 -0.1525191E+01  0.8777310E+06 -0.1525192E+01  0.9067792E-02 -0.2781907E+01
  0.6545000E+00  0.8195346E+06  0.1726256E+01  0.1298013E+06 -0.1415338E+01  0.5637940E+06 -0.2747465E+01  0.1663662E+06 -0.1494022E+01  0.1050395E+07 -0.1494023E+01  0.1489846E-01 -0.2856789E+01
  0.7199500E+00  0.9539168E+06  0.1810744E+01  0.1510856E+06 -0.1330850E+01  0.6057980E+06 -0.2720584E+01  0.1947721E+06 -0.1449169E+01  0.1229742E+07 -0.1449169E+01  0.2519675E-01 -0.2931360E+01
  0.7854000E+00  0.1071554E+07  0.1919034E+01  0.1697172E+06 -0.1222560E+01  0.6291904E+06 -0.2693971E+01  0.2193445E+06 -0.1392375E+01  0.1384886E+07 -0.1392375E+01  0.4334893E-01 -0.2995328E+01
Zone t="Diffraction force - beta = 180.000 deg",I=     5,F=POINT
  0.5236000E+00  0.5703668E+06  0.1628716E+01  0.3076202E+00  0.1607217E+00  0.4314702E+06 -0.2805815E+01  0.8621542E+00 -0.2683810E+01  0.7278936E+06 -0.1544211E+01  0.3641951E-02 -0.2424964E+01
  0.5890500E+00  0.6916550E+06  0.1666848E+01  0.1510988E+00  0.2496569E+01  0.5040974E+06 -0.2780459E+01  0.4671186E+00 -0.9866565E+00  0.8886716E+06 -0.1525192E+01  0.4565958E-02 -0.2364802E+01
  0.6545000E+00  0.8297496E+06  0.1726256E+01  0.2608598E+00  0.2575887E+01  0.5637941E+06 -0.2747465E+01  0.3819824E+00 -0.1929721E+00  0.1063488E+07 -0.1494023E+01  0.5587697E-02 -0.2287097E+01
  0.7199500E+00  0.9658077E+06  0.1810744E+01  0.3047272E+00  0.2670099E+01  0.6057982E+06 -0.2720583E+01  0.3186548E+00  0.3019490E+01  0.1245071E+07 -0.1449169E+01  0.6618456E-02 -0.2216260E+01
  0.7854000E+00  0.1084911E+07  0.1919035E+01  0.3761434E+00  0.2456880E+01  0.6291906E+06 -0.2693971E+01  0.8045900E+00  0.2460039E+01  0.1402150E+07 -0.1392376E+01  0.7563992E-02 -0.2155137E+01
Zone t="Diffraction force - beta = 189.000 deg",I=     5,F=POINT
  0.5236000E+00  0.5633449E+06  0.1628716E+01  0.8922508E+05  0.1628712E+01  0.4314702E+06 -0.2805814E+01  0.1138674E+06  0.1597392E+01  0.7189321E+06 -0.1544211E+01  0.2394944E-02 -0.1665355E+01
  0.5890500E+00  0.6831394E+06  0.1666848E+01  0.1081988E+06  0.1666848E+01  0.5040972E+06 -0.2780458E+01  0.1390184E+06  0.1616395E+01  0.8777306E+06 -0.1525192E+01  0.3778200E-02 -0.1015805E+01
  0.6545000E+00  0.8195344E+06  0.1726256E+01  0.1298016E+06  0.1726258E+01  0.5637941E+06 -0.2747464E+01  0.1663663E+06  0.1647568E+01  0.1050395E+07 -0.1494023E+01  0.8135634E-02 -0.5448536E+00
  0.7199500E+00  0.9539171E+06  0.1810744E+01  0.1510856E+06  0.1810746E+01  0.6057983E+06 -0.2720584E+01  0.1947720E+06  0.1692424E+01  0.1229742E+07 -0.1449169E+01  0.1750729E-01 -0.3043016E+00
  0.7854000E+00  0.1071553E+07  0.1919035E+01  0.1697182E+06  0.1919035E+01  0.6291904E+06 -0.2693971E+01  0.2193448E+06  0.1749220E+01  0.1384887E+07 -0.1392376E+01  0.3511550E-01 -0.1795359E+00
Zone t="Diffraction force - beta = 198.000 deg",I=     5,F=POINT
  0.5236000E+00  0.5424512E+06  0.1628716E+01  0.1762530E+06  0.1628714E+01  0.4314701E+06 -0.2805813E+01  0.2249312E+06  0.1597384E+01  0.6922679E+06 -0.1544211E+01  0.2747311E-02 -0.1062521E+01
  0.5890500E+00  0.6578032E+06  0.1666848E+01  0.2137333E+06  0.1666848E+01  0.5040972E+06 -0.2780458E+01  0.2746140E+06  0.1616400E+01  0.8451769E+06 -0.1525192E+01  0.6122374E-02 -0.5507305E+00
  0.6545000E+00  0.7891388E+06  0.1726256E+01  0.2564067E+06  0.1726257E+01  0.5637941E+06 -0.2747465E+01  0.3286360E+06  0.1647567E+01  0.1011437E+07 -0.1494023E+01  0.1416375E-01 -0.2992910E+00
  0.7199500E+00  0.9185376E+06  0.1810744E+01  0.2984510E+06  0.1810745E+01  0.6057982E+06 -0.2720584E+01  0.3847472E+06  0.1692424E+01  0.1184133E+07 -0.1449170E+01  0.2993722E-01 -0.1754790E+00
  0.7854000E+00  0.1031811E+07  0.1919035E+01  0.3352564E+06  0.1919035E+01  0.6291904E+06 -0.2693971E+01  0.4332886E+06  0.1749218E+01  0.1333524E+07 -0.1392376E+01  0.5880965E-01 -0.1071554E+00
Zone t="Diffraction force - beta = 207.000 deg",I=     5,F=POINT
  0.5236000E+00  0.5082006E+06  0.1628716E+01  0.2589412E+06  0.1628715E+01  0.4314699E+06 -0.2805813E+01  0.3304567E+06  0.1597385E+01  0.6485581E+06 -0.1544211E+01  0.2738478E-02 -0.1058587E+01
  0.5890500E+00  0.6162692E+06  0.1666848E+01  0.3140050E+06  0.1666847E+01  0.5040971E+06 -0.2780458E+01  0.4034477E+06  0.1616398E+01  0.7918119E+06 -0.1525192E+01  0.6145202E-02 -0.5534142E+00
  0.6545000E+00  0.7393124E+06  0.1726256E+01  0.3766985E+06  0.1726256E+01  0.5637940E+06 -0.2747464E+01  0.4828137E+06  0.1647568E+01  0.9475750E+06 -0.1494023E+01  0.1419447E-01 -0.3010297E+00
  0.7199500E+00  0.8605411E+06  0.1810744E+01  0.4384677E+06  0.1810744E+01  0.6057982E+06 -0.2720584E+01  0.5652501E+06  0.1692424E+01  0.1109366E+07 -0.1449169E+01  0.2992128E-01 -0.1758739E+00
  0.7854000E+00  0.9666626E+06  0.1919034E+01  0.4925394E+06  0.1919035E+01  0.6291904E+06 -0.2693971E+01  0.6365628E+06  0.1749217E+01  0.1249324E+07 -0.1392376E+01  0.5883254E-01 -0.1070168E+00
Zone t="Diffraction force - beta = 216.000 deg",I=     5,F=POINT
  0.5236000E+00  0.4614362E+06  0.1628716E+01  0.3352531E+06  0.1628715E+01  0.4314698E+06 -0.2805812E+01  0.4278448E+06  0.1597382E+01  0.5888786E+06 -0.1544210E+01  0.2399844E-02 -0.1663315E+01
  0.5890500E+00  0.5595608E+06  0.1666848E+01  0.4065443E+06  0.1666847E+01  0.5040971E+06 -0.2780457E+01  0.5223478E+06  0.1616400E+01  0.7189507E+06 -0.1525192E+01  0.3772584E-02 -0.1016332E+01
  0.6545000E+00  0.6712818E+06  0.1726256E+01  0.4877147E+06  0.1726256E+01  0.5637942E+06 -0.2747464E+01  0.6251024E+06  0.1647569E+01  0.8603799E+06 -0.1494023E+01  0.8131507E-02 -0.5429080E+00
  0.7199500E+00  0.7813546E+06  0.1810744E+01  0.5676872E+06  0.1810744E+01  0.6057981E+06 -0.2720584E+01  0.7318336E+06  0.1692423E+01  0.1007284E+07 -0.1449169E+01  0.1750225E-01 -0.3032838E+00
  0.7854000E+00  0.8777108E+06  0.1919035E+01  0.6376948E+06  0.1919035E+01  0.6291905E+06 -0.2693971E+01  0.8241629E+06  0.1749217E+01  0.1134363E+07 -0.1392376E+01  0.3515333E-01 -0.1797136E+00
Zone t="Diffraction force - beta = 225.000 deg",I=     5,F=POINT
  0.5236000E+00  0.4033102E+06  0.1628716E+01  0.4033105E+06  0.1628715E+01  0.4314697E+06 -0.2805811E+01  0.5146979E+06  0.1597382E+01  0.5146985E+06 -0.1544210E+01  0.3638074E-02 -0.2427726E+01
  0.5890500E+00  0.4890741E+06  0.1666848E+01  0.4890737E+06  0.1666847E+01  0.5040971E+06 -0.2780457E+01  0.6283849E+06  0.1616399E+01  0.6283859E+06 -0.1525193E+01  0.4571294E-02 -0.2361446E+01
  0.6545000E+00  0.5867214E+06  0.1726256E+01  0.5867214E+06  0.1726256E+01  0.5637939E+06 -0.2747464E+01  0.7519991E+06  0.1647569E+01  0.7520001E+06 -0.1494023E+01  0.5559082E-02 -0.2288604E+01
  0.7199500E+00  0.6829291E+06  0.1810744E+01  0.6829292E+06  0.1810744E+01  0.6057981E+06 -0.2720583E+01  0.8803972E+06  0.1692423E+01  0.8803976E+06 -0.1449170E+01  0.6576517E-02 -0.2214887E+01
  0.7854000E+00  0.7671474E+06  0.1919035E+01  0.7671478E+06  0.1919035E+01  0.6291906E+06 -0.2693971E+01  0.9914695E+06  0.1749217E+01  0.9914691E+06 -0.1392375E+01  0.7529398E-02 -0.2152079E+01
Zone t="Diffraction force - beta = 234.000 deg",I=     5,F=POINT
  0.5236000E+00  0.3352528E+06  0.1628716E+01  0.4614366E+06  0.1628715E+01  0.4314697E+06 -0.2805811E+01  0.5888783E+06  0.1597382E+01  0.4278449E+06 -0.1544210E+01  0.5793151E-02 -0.2717010E+01
  0.5890500E+00  0.4065442E+06  0.1666848E+01  0.5595604E+06  0.1666847E+01  0.5040969E+06 -0.2780457E+01  0.7189501E+06  0.1616400E+01  0.5223482E+06 -0.1525192E+01  0.9068784E-02 -0.2781581E+01
  0.6545000E+00  0.4877145E+06  0.1726256E+01  0.6712815E+06  0.1726256E+01  0.5637940E+06 -0.2747464E+01  0.8603798E+06  0.1647569E+01  0.6251022E+06 -0.1494023E+01  0.1489665E-01 -0.2856874E+01
  0.7199500E+00  0.5676876E+06  0.1810744E+01  0.7813546E+06  0.1810744E+01  0.6057981E+06 -0.2720583E+01  0.1007283E+07  0.1692423E+01  0.7318337E+06 -0.1449170E+01  0.2517608E-01 -0.2930368E+01
  0.7854000E+00  0.6376943E+06  0.1919035E+01  0.8777116E+06  0.1919035E+01  0.6291906E+06 -0.2693971E+01  0.1134363E+07  0.1749218E+01  0.8241628E+06 -0.1392376E+01  0.4331605E-01 -0.2995236E+01
Zone t="Diffraction force - beta = 243.000 deg",I=     5,F=POINT
  0.5236000E+00  0.2589406E+06  0.1628716E+01  0.5082007E+06  0.1628715E+01  0.4314697E+06 -0.2805811E+01  0.6485585E+06  0.1597382E+01  0.3304566E+06 -0.1544210E+01  0.7240180E-02 -0.2807045E+01
  0.5890500E+00  0.3140045E+06  0.1666848E+01  0.6162686E+06  0.1666847E+01  0.5040968E+06 -0.2780456E+01  0.7918111E+06  0.1616400E+01  0.4034480E+06 -0.1525192E+01  0.1215047E-01 -0.2875033E+01
  0.6545000E+00  0.3766982E+06  0.1726256E+01  0.7393124E+06  0.1726256E+01  0.5637938E+06 -0.2747464E+01  0.9475745E+06  0.1647569E+01  0.4828133E+06 -0.1494024E+01  0.2127202E-01 -0.2944213E+01
  0.7199500E+00  0.4384676E+06  0.1810744E+01  0.8605408E+06  0.1810744E+01  0.6057980E+06 -0.2720583E+01  0.1109365E+07  0.1692423E+01  0.5652501E+06 -0.1449170E+01  0.3775378E-01 -0.3001741E+01
  0.7854000E+00  0.4925391E+06  0.1919034E+01  0.9666634E+06  0.1919035E+01  0.6291905E+06 -0.2693971E+01  0.1249325E+07  0.1749217E+01  0.6365624E+06 -0.1392375E+01  0.6709503E-01 -0.3047557E+01
Zone t="Diffraction force - beta = 252.000 deg",I=     5,F=POINT
  0.5236000E+00  0.1762526E+06  0.1628715E+01  0.5424507E+06  0.1628715E+01  0.4314696E+06 -0.2805811E+01  0.6922678E+06  0.1597382E+01  0.2249310E+06 -0.1544208E+01  0.7247820E-02 -0.2808712E+01
  0.5890500E+00  0.2137326E+06  0.1666848E+01  0.6578026E+06  0.1666847E+01  0.5040967E+06 -0.2780456E+01  0.8451764E+06  0.1616400E+01  0.2746141E+06 -0.1525193E+01  0.1214846E-01 -0.2874345E+01