VARIABLES="w (rad/s)"
"abs(F   1   1)" "angle(F   1   1)"
"abs(F   1   2)" "angle(F   1   2)"
"abs(F   1   3)" "angle(F   1   3)"
"abs(F   1   4)" "angle(F   1   4)"
"abs(F   1   5)" "angle(F   1   5)"
"abs(F   1   6)" "angle(F   1   6)"
Zone t="Diffraction force - beta =   0.000 deg",I=     5,F=POINT
  0.5236000E+00  0.1384941E+07 -0.1546954E+01  0.2824200E+00  0.5862771E-01  0.1917066E+07 -0.7422888E-01  0.7949513E+00  0.2281541E+01  0.8094046E+06  0.1594701E+01  0.3213003E-01 -0.7438392E-01
  0.5890500E+00  0.1636899E+07 -0.1530262E+01  0.2322616E+00 -0.2369220E+01  0.1676237E+07 -0.1064605E+00  0.7890711E+00  0.5698044E+00  0.1001041E+07  0.1611278E+01  0.3005094E-01 -0.1069049E+00
  0.6545000E+00  0.1910992E+07 -0.1503517E+01  0.3088295E+00 -0.2694435E+01  0.1444606E+07 -0.1504342E+00  0.1219657E+00  0.1497561E+00  0.1211644E+07  0.1638166E+01  0.2792441E-01 -0.1506350E+00
  0.7199500E+00  0.2180451E+07 -0.1465336E+01  0.3130180E+00 -0.2649099E+01  0.1227840E+07 -0.2030300E+00  0.1538734E+00  0.2053516E+01  0.1431250E+07  0.1676538E+01  0.2578040E-01 -0.2029697E+00
  0.7854000E+00  0.2418492E+07 -0.1417114E+01  0.4048222E+00 -0.2081161E+01  0.1031933E+07 -0.2670647E+00  0.2672588E+00  0.4891744E-01  0.1624481E+07  0.1724586E+01  0.2367150E-01 -0.2694730E+00
Zone t="Diffraction force - beta =   9.000 deg",I=     5,F=POINT
  0.5236000E+00  0.1367892E+07 -0.1546954E+01  0.2166527E+06 -0.1546956E+01  0.1917065E+07 -0.7422895E-01  0.1266184E+06 -0.1546896E+01  0.7994393E+06  0.1594702E+01  0.3729026E-01 -0.6391085E-01
  0.5890500E+00  0.1616746E+07 -0.1530262E+01  0.2560674E+06 -0.1530262E+01  0.1676236E+07 -0.1064605E+00  0.1565969E+06 -0.1530306E+01  0.9887169E+06  0.1611279E+01  0.4089359E-01 -0.7844693E-01
  0.6545000E+00  0.1887466E+07 -0.1503517E+01  0.2989452E+06 -0.1503517E+01  0.1444607E+07 -0.1504341E+00  0.1895428E+06 -0.1503424E+01  0.1196727E+07  0.1638166E+01  0.4965259E-01 -0.8451703E-01
  0.7199500E+00  0.2153604E+07 -0.1465335E+01  0.3410976E+06 -0.1465336E+01  0.1227839E+07 -0.2030302E+00  0.2238966E+06 -0.1465055E+01  0.1413629E+07  0.1676538E+01  0.6792616E-01 -0.7677279E-01
  0.7854000E+00  0.2388716E+07 -0.1417114E+01  0.3783357E+06 -0.1417116E+01  0.1031933E+07 -0.2670646E+00  0.2541249E+06 -0.1417008E+01  0.1604481E+07  0.1724587E+01  0.1023190E+00 -0.6178542E-01
Zone t="Diffraction force - beta =  18.000 deg",I=     5,F=POINT
  0.5236000E+00  0.1317158E+07 -0.1546954E+01  0.4279706E+06 -0.1546951E+01  0.1917065E+07 -0.7422878E-01  0.2501193E+06 -0.1546895E+01  0.7697896E+06  0.1594702E+01  0.4053263E-01 -0.5897558E-01
  0.5890500E+00  0.1556784E+07 -0.1530262E+01  0.5058297E+06 -0.1530261E+01  0.1676237E+07 -0.1064602E+00  0.3093380E+06 -0.1530317E+01  0.9520466E+06  0.1611278E+01  0.4748204E-01 -0.6775505E-01
  0.6545000E+00  0.1817461E+07 -0.1503517E+01  0.5905293E+06 -0.1503518E+01  0.1444606E+07 -0.1504342E+00  0.3744186E+06 -0.1503428E+01  0.1152342E+07  0.1638166E+01  0.6314616E-01 -0.6647038E-01
  0.7199500E+00  0.2073732E+07 -0.1465336E+01  0.6737969E+06 -0.1465335E+01  0.1227840E+07 -0.2030296E+00  0.4422804E+06 -0.1465055E+01  0.1361199E+07  0.1676538E+01  0.9419006E-01 -0.5558551E-01
  0.7854000E+00  0.2300121E+07 -0.1417114E+01  0.7473552E+06 -0.1417114E+01  0.1031932E+07 -0.2670649E+00  0.5019932E+06 -0.1417006E+01  0.1544974E+07  0.1724586E+01  0.1513162E+00 -0.4159341E-01
Zone t="Diffraction force - beta =  27.000 deg",I=     5,F=POINT
  0.5236000E+00  0.1233992E+07 -0.1546954E+01  0.6287502E+06 -0.1546956E+01  0.1917065E+07 -0.7422859E-01  0.3674616E+06 -0.1546893E+01  0.7211851E+06  0.1594703E+01  0.4052868E-01 -0.5902520E-01
  0.5890500E+00  0.1458487E+07 -0.1530262E+01  0.7431369E+06 -0.1530264E+01  0.1676238E+07 -0.1064602E+00  0.4544627E+06 -0.1530313E+01  0.8919339E+06  0.1611279E+01  0.4752253E-01 -0.6755064E-01
  0.6545000E+00  0.1702707E+07 -0.1503517E+01  0.8675723E+06 -0.1503518E+01  0.1444606E+07 -0.1504342E+00  0.5500753E+06 -0.1503427E+01  0.1079583E+07  0.1638166E+01  0.6318489E-01 -0.6686023E-01
  0.7199500E+00  0.1942795E+07 -0.1465335E+01  0.9899037E+06 -0.1465335E+01  0.1227840E+07 -0.2030300E+00  0.6497739E+06 -0.1465055E+01  0.1275253E+07  0.1676538E+01  0.9421717E-01 -0.5570448E-01
  0.7854000E+00  0.2154891E+07 -0.1417114E+01  0.1097973E+07 -0.1417114E+01  0.1031932E+07 -0.2670649E+00  0.7374998E+06 -0.1417006E+01  0.1447425E+07  0.1724587E+01  0.1513062E+00 -0.4164452E-01
Zone t="Diffraction force - beta =  36.000 deg",I=     5,F=POINT
  0.5236000E+00  0.1120442E+07 -0.1546954E+01  0.8140484E+06 -0.1546954E+01  0.1917065E+07 -0.7422862E-01  0.4757559E+06 -0.1546890E+01  0.6548220E+06  0.1594702E+01  0.3731077E-01 -0.6378252E-01
  0.5890500E+00  0.1324278E+07 -0.1530262E+01  0.9621449E+06 -0.1530261E+01  0.1676237E+07 -0.1064602E+00  0.5883965E+06 -0.1530313E+01  0.8098590E+06  0.1611279E+01  0.4080205E-01 -0.7872313E-01
  0.6545000E+00  0.1546026E+07 -0.1503517E+01  0.1123253E+07 -0.1503517E+01  0.1444606E+07 -0.1504342E+00  0.7121861E+06 -0.1503427E+01  0.9802410E+06  0.1638166E+01  0.4970380E-01 -0.8462562E-01
  0.7199500E+00  0.1764022E+07 -0.1465335E+01  0.1281636E+07 -0.1465336E+01  0.1227839E+07 -0.2030298E+00  0.8412669E+06 -0.1465055E+01  0.1157906E+07  0.1676538E+01  0.6799560E-01 -0.7691357E-01
  0.7854000E+00  0.1956600E+07 -0.1417114E+01  0.1421554E+07 -0.1417114E+01  0.1031933E+07 -0.2670646E+00  0.9548469E+06 -0.1417007E+01  0.1314234E+07  0.1724586E+01  0.1023791E+00 -0.6151238E-01
Zone t="Diffraction force - beta =  45.000 deg",I=     5,F=POINT
  0.5236000E+00  0.9793014E+06 -0.1546954E+01  0.9793015E+06 -0.1546952E+01  0.1917065E+07 -0.7422839E-01  0.5723350E+06 -0.1546891E+01  0.5723352E+06  0.1594702E+01  0.3207530E-01 -0.7439142E-01
  0.5890500E+00  0.1157462E+07 -0.1530262E+01  0.1157462E+07 -0.1530263E+01  0.1676236E+07 -0.1064600E+00  0.7078425E+06 -0.1530314E+01  0.7078432E+06  0.1611278E+01  0.3005618E-01 -0.1067919E+00
  0.6545000E+00  0.1351277E+07 -0.1503517E+01  0.1351276E+07 -0.1503518E+01  0.1444607E+07 -0.1504341E+00  0.8567617E+06 -0.1503426E+01  0.8567623E+06  0.1638166E+01  0.2790130E-01 -0.1512863E+00
  0.7199500E+00  0.1541812E+07 -0.1465336E+01  0.1541812E+07 -0.1465336E+01  0.1227840E+07 -0.2030297E+00  0.1012046E+07 -0.1465056E+01  0.1012047E+07  0.1676538E+01  0.2587881E-01 -0.2019477E+00
  0.7854000E+00  0.1710132E+07 -0.1417114E+01  0.1710131E+07 -0.1417114E+01  0.1031933E+07 -0.2670647E+00  0.1148682E+07 -0.1417005E+01  0.1148683E+07  0.1724587E+01  0.2374965E-01 -0.2685339E+00
Zone t="Diffraction force - beta =  54.000 deg",I=     5,F=POINT
  0.5236000E+00  0.8140482E+06 -0.1546954E+01  0.1120442E+07 -0.1546952E+01  0.1917064E+07 -0.7422841E-01  0.6548222E+06 -0.1546890E+01  0.4757559E+06  0.1594702E+01  0.2688058E-01 -0.8904093E-01
  0.5890500E+00  0.9621448E+06 -0.1530262E+01  0.1324279E+07 -0.1530261E+01  0.1676236E+07 -0.1064600E+00  0.8098592E+06 -0.1530314E+01  0.5883973E+06  0.1611279E+01  0.1931868E-01 -0.1667741E+00
  0.6545000E+00  0.1123253E+07 -0.1503517E+01  0.1546025E+07 -0.1503516E+01  0.1444606E+07 -0.1504343E+00  0.9802412E+06 -0.1503425E+01  0.7121869E+06  0.1638166E+01  0.7133457E-02 -0.6308870E+00
  0.7199500E+00  0.1281636E+07 -0.1465336E+01  0.1764021E+07 -0.1465336E+01  0.1227838E+07 -0.2030300E+00  0.1157904E+07 -0.1465055E+01  0.8412679E+06  0.1676539E+01  0.1795770E-01 -0.2846700E+01
  0.7854000E+00  0.1421553E+07 -0.1417114E+01  0.1956600E+07 -0.1417115E+01  0.1031933E+07 -0.2670647E+00  0.1314234E+07 -0.1417005E+01  0.9548465E+06  0.1724586E+01  0.5669088E-01 -0.3030346E+01
Zone t="Diffraction force - beta =  63.000 deg",I=     5,F=POINT
  0.5236000E+00  0.6287502E+06 -0.1546954E+01  0.1233992E+07 -0.1546954E+01  0.1917064E+07 -0.7422823E-01  0.7211849E+06 -0.1546889E+01  0.3674618E+06  0.1594702E+01  0.2361202E-01 -0.1011963E+00
  0.5890500E+00  0.7431360E+06 -0.1530262E+01  0.1458487E+07 -0.1530262E+01  0.1676238E+07 -0.1064596E+00  0.8919342E+06 -0.1530314E+01  0.4544628E+06  0.1611280E+01  0.1269933E-01 -0.2559686E+00
  0.6545000E+00  0.8675724E+06 -0.1503517E+01  0.1702706E+07 -0.1503517E+01  0.1444606E+07 -0.1504339E+00  0.1079583E+07 -0.1503425E+01  0.5500754E+06  0.1638166E+01  0.8892316E-02 -0.2652380E+01
  0.7199500E+00  0.9899035E+06 -0.1465336E+01  0.1942795E+07 -0.1465335E+01  0.1227840E+07 -0.2030296E+00  0.1275253E+07 -0.1465054E+01  0.6497739E+06  0.1676539E+01  0.4379378E-01 -0.3021393E+01
  0.7854000E+00  0.1097972E+07 -0.1417114E+01  0.2154892E+07 -0.1417114E+01  0.1031932E+07 -0.2670650E+00  0.1447424E+07 -0.1417006E+01  0.7374996E+06  0.1724587E+01  0.1056035E+00 -0.3081978E+01
Zone t="Diffraction force - beta =  72.000 deg",I=     5,F=POINT
  0.5236000E+00  0.4279700E+06 -0.1546954E+01  0.1317158E+07 -0.1546953E+01  0.1917063E+07 -0.7422828E-01  0.7697893E+06 -0.1546892E+01  0.2501193E+06  0.1594701E+01  0.2360820E-01 -0.1007489E+00
  0.5890500E+00  0.5058296E+06 -0.1530263E+01  0.1556782E+07 -0.1530262E+01  0.1676236E+07 -0.1064598E+00  0.9520461E+06 -0.1530313E+01  0.3093386E+06  0.1611280E+01  0.1270377E-01 -0.2565940E+00
  0.6545000E+00  0.5905290E+06 -0.1503517E+01  0.1817461E+07 -0.1503517E+01  0.1444606E+07 -0.1504339E+00  0.1152341E+07 -0.1503425E+01  0.3744189E+06  0.1638167E+01  0.8871382E-02 -0.2646721E+01
  0.7199500E+00  0.6737962E+06 -0.1465337E+01  0.2073733E+07 -0.1465337E+01  0.1227839E+07 -0.2030299E+00  0.1361199E+07 -0.1465054E+01  0.4422807E+06  0.1676540E+01  0.4380618E-01 -0.3021015E+01
  0.7854000E+00  0.7473553E+06 -0.1417114E+01  0.2300122E+07 -0.1417114E+01  0.1031932E+07 -0.2670650E+00  0.1544975E+07 -0.1417007E+01  0.5019933E+06  0.1724586E+01  0.1056704E+00 -0.3081776E+01
Zone t="Diffraction force - beta =  81.000 deg",I=     5,F=POINT
  0.5236000E+00  0.2166525E+06 -0.1546954E+01  0.1367891E+07 -0.1546953E+01  0.1917064E+07 -0.7422825E-01  0.7994396E+06 -0.1546891E+01  0.1266184E+06  0.1594695E+01  0.2685887E-01 -0.8872353E-01
  0.5890500E+00  0.2560673E+06 -0.1530262E+01  0.1616746E+07 -0.1530262E+01  0.1676235E+07 -0.1064599E+00  0.9887164E+06 -0.1530313E+01  0.1565970E+06  0.1611279E+01  0.1925486E-01 -0.1667703E+00
  0.6545000E+00  0.2989449E+06 -0.1503517E+01  0.1887465E+07 -0.1503517E+01  0.1444606E+07 -0.1504338E+00  0.1196726E+07 -0.1503426E+01  0.1895432E+06  0.1638166E+01  0.7072855E-02 -0.6322365E+00
  0.7199500E+00  0.3410975E+06 -0.1465336E+01  0.2153604E+07 -0.1465337E+01  0.1227839E+07 -0.2030299E+00  0.1413628E+07 -0.1465054E+01  0.2238966E+06  0.1676539E+01  0.1801970E-01 -0.2844653E+01
  0.7854000E+00  0.3783359E+06 -0.1417115E+01  0.2388717E+07 -0.1417114E+01  0.1031932E+07 -0.2670650E+00  0.1604482E+07 -0.1417006E+01  0.2541253E+06  0.1724587E+01  0.5677164E-01 -0.3030806E+01
Zone t="Diffraction force - beta =  90.000 deg",I=     5,F=POINT
  0.5236000E+00  0.3739912E+00  0.1584750E+01  0.1384942E+07 -0.1546953E+01  0.1917064E+07 -0.7422823E-01  0.8094044E+06 -0.1546890E+01  0.1023574E+01 -0.3224367E+00  0.3212518E-01 -0.7457793E-01
  0.5890500E+00  0.2857910E+00  0.2296206E+01  0.1636898E+07 -0.1530262E+01  0.1676236E+07 -0.1064598E+00  0.1001041E+07 -0.1530314E+01  0.4889821E+00 -0.1039504E+01  0.3005223E-01 -0.1072143E+00
  0.6545000E+00  0.2300887E+00  0.2051454E+01  0.1910991E+07 -0.1503517E+01  0.1444606E+07 -0.1504340E+00  0.1211643E+07 -0.1503426E+01  0.2568258E+00 -0.3128978E+01  0.2791151E-01 -0.1503692E+00
  0.7199500E+00  0.2742013E+00  0.2413696E+01  0.2180450E+07 -0.1465336E+01  0.1227840E+07 -0.2030297E+00  0.1431250E+07 -0.1465054E+01  0.2963398E+00  0.2905241E+01  0.2578218E-01 -0.2045916E+00
  0.7854000E+00  0.2094999E+00 -0.7062089E+00  0.2418490E+07 -0.1417114E+01  0.1031933E+07 -0.2670647E+00  0.1624482E+07 -0.1417006E+01  0.1469692E+00  0.1284611E+01  0.2366223E-01 -0.2692349E+00
Zone t="Diffraction force - beta =  99.000 deg",I=     5,F=POINT
  0.5236000E+00  0.2166529E+06  0.1594639E+01  0.1367892E+07 -0.1546954E+01  0.1917063E+07 -0.7422826E-01  0.7994396E+06 -0.1546890E+01  0.1266192E+06 -0.1546884E+01  0.3728100E-01 -0.6375574E-01
  0.5890500E+00  0.2560676E+06  0.1611332E+01  0.1616745E+07 -0.1530262E+01  0.1676235E+07 -0.1064599E+00  0.9887163E+06 -0.1530315E+01  0.1565976E+06 -0.1530315E+01  0.4088380E-01 -0.7886083E-01
  0.6545000E+00  0.2989450E+06  0.1638076E+01  0.1887464E+07 -0.1503517E+01  0.1444606E+07 -0.1504339E+00  0.1196726E+07 -0.1503426E+01  0.1895429E+06 -0.1503425E+01  0.4963221E-01 -0.8508168E-01
  0.7199500E+00  0.3410977E+06  0.1676257E+01  0.2153604E+07 -0.1465335E+01  0.1227839E+07 -0.2030299E+00  0.1413630E+07 -0.1465054E+01  0.2238969E+06 -0.1465055E+01  0.6791450E-01 -0.7727245E-01
  0.7854000E+00  0.3783349E+06  0.1724478E+01  0.2388716E+07 -0.1417115E+01  0.1031931E+07 -0.2670646E+00  0.1604481E+07 -0.1417005E+01  0.2541248E+06 -0.1417005E+01  0.1023032E+00 -0.6169916E-01
Zone t="Diffraction force - beta = 108.000 deg",I=     5,F=POINT
  0.5236000E+00  0.4279710E+06  0.1594639E+01  0.1317158E+07 -0.1546954E+01  0.1917065E+07 -0.7422821E-01  0.7697896E+06 -0.1546889E+01  0.2501203E+06 -0.1546886E+01  0.4053885E-01 -0.5899470E-01
  0.5890500E+00  0.5058299E+06  0.1611332E+01  0.1556783E+07 -0.1530262E+01  0.1676236E+07 -0.1064598E+00  0.9520461E+06 -0.1530314E+01  0.3093392E+06 -0.1530314E+01  0.4747476E-01 -0.6762830E-01
  0.6545000E+00  0.5905294E+06  0.1638076E+01  0.1817461E+07 -0.1503517E+01  0.1444606E+07 -0.1504340E+00  0.1152342E+07 -0.1503427E+01  0.3744188E+06 -0.1503427E+01  0.6315229E-01 -0.6622036E-01
  0.7199500E+00  0.6737967E+06  0.1676257E+01  0.2073731E+07 -0.1465336E+01  0.1227838E+07 -0.2030295E+00  0.1361199E+07 -0.1465055E+01  0.4422808E+06 -0.1465055E+01  0.9420281E-01 -0.5528626E-01
  0.7854000E+00  0.7473544E+06  0.1724478E+01  0.2300123E+07 -0.1417114E+01  0.1031931E+07 -0.2670647E+00  0.1544974E+07 -0.1417005E+01  0.5019923E+06 -0.1417005E+01  0.1513112E+00 -0.4149673E-01
Zone t="Diffraction force - beta = 117.000 deg",I=     5,F=POINT
  0.5236000E+00  0.6287509E+06  0.1594639E+01  0.1233992E+07 -0.1546953E+01  0.1917065E+07 -0.7422814E-01  0.7211849E+06 -0.1546889E+01  0.3674626E+06 -0.1546887E+01  0.4052601E-01 -0.5907862E-01
  0.5890500E+00  0.7431369E+06  0.1611331E+01  0.1458486E+07 -0.1530262E+01  0.1676237E+07 -0.1064598E+00  0.8919341E+06 -0.1530314E+01  0.4544636E+06 -0.1530314E+01  0.4752707E-01 -0.6764739E-01
  0.6545000E+00  0.8675724E+06  0.1638076E+01  0.1702706E+07 -0.1503517E+01  0.1444606E+07 -0.1504340E+00  0.1079582E+07 -0.1503426E+01  0.5500754E+06 -0.1503426E+01  0.6316282E-01 -0.6643107E-01
  0.7199500E+00  0.9899038E+06  0.1676257E+01  0.1942794E+07 -0.1465336E+01  0.1227839E+07 -0.2030294E+00  0.1275253E+07 -0.1465054E+01  0.6497746E+06 -0.1465055E+01  0.9420044E-01 -0.5561734E-01
  0.7854000E+00  0.1097972E+07  0.1724478E+01  0.2154890E+07 -0.1417114E+01  0.1031931E+07 -0.2670644E+00  0.1447424E+07 -0.1417005E+01  0.7374998E+06 -0.1417005E+01  0.1512967E+00 -0.4150208E-01
Zone t="Diffraction force - beta = 126.000 deg",I=     5,F=POINT
  0.5236000E+00  0.8140492E+06  0.1594639E+01  0.1120442E+07 -0.1546955E+01  0.1917065E+07 -0.7422834E-01  0.6548223E+06 -0.1546890E+01  0.4757567E+06 -0.1546887E+01  0.3731800E-01 -0.6385788E-01
  0.5890500E+00  0.9621455E+06  0.1611331E+01  0.1324278E+07 -0.1530262E+01  0.1676237E+07 -0.1064597E+00  0.8098592E+06 -0.1530314E+01  0.5883977E+06 -0.1530314E+01  0.4081101E-01 -0.7805555E-01
  0.6545000E+00  0.1123254E+07  0.1638076E+01  0.1546026E+07 -0.1503517E+01  0.1444605E+07 -0.1504337E+00  0.9802402E+06 -0.1503426E+01  0.7121869E+06 -0.1503426E+01  0.4969985E-01 -0.8452358E-01
  0.7199500E+00  0.1281637E+07  0.1676257E+01  0.1764021E+07 -0.1465336E+01  0.1227838E+07 -0.2030296E+00  0.1157904E+07 -0.1465054E+01  0.8412679E+06 -0.1465054E+01  0.6800240E-01 -0.7715444E-01
  0.7854000E+00  0.1421554E+07  0.1724478E+01  0.1956600E+07 -0.1417114E+01  0.1031932E+07 -0.2670643E+00  0.1314234E+07 -0.1417006E+01  0.9548467E+06 -0.1417006E+01  0.1023997E+00 -0.6147561E-01
Zone t="Diffraction force - beta = 135.000 deg",I=     5,F=POINT
  0.5236000E+00  0.9793019E+06  0.1594639E+01  0.9793014E+06 -0.1546955E+01  0.1917065E+07 -0.7422833E-01  0.5723356E+06 -0.1546889E+01  0.5723360E+06 -0.1546888E+01  0.3208893E-01 -0.7450708E-01
  0.5890500E+00  0.1157463E+07  0.1611331E+01  0.1157462E+07 -0.1530261E+01  0.1676236E+07 -0.1064598E+00  0.7078431E+06 -0.1530313E+01  0.7078436E+06 -0.1530314E+01  0.3007733E-01 -0.1072617E+00
  0.6545000E+00  0.1351276E+07  0.1638076E+01  0.1351276E+07 -0.1503517E+01  0.1444605E+07 -0.1504336E+00  0.8567622E+06 -0.1503425E+01  0.8567621E+06 -0.1503427E+01  0.2789917E-01 -0.1512554E+00
  0.7199500E+00  0.1541812E+07  0.1676257E+01  0.1541812E+07 -0.1465336E+01  0.1227839E+07 -0.2030295E+00  0.1012047E+07 -0.1465054E+01  0.1012047E+07 -0.1465055E+01  0.2587992E-01 -0.2041568E+00
  0.7854000E+00  0.1710132E+07  0.1724478E+01  0.1710131E+07 -0.1417114E+01  0.1031932E+07 -0.2670644E+00  0.1148681E+07 -0.1417006E+01  0.1148682E+07 -0.1417006E+01  0.2375452E-01 -0.2683050E+00
Zone t="Diffraction force - beta = 144.000 deg",I=     5,F=POINT
  0.5236000E+00  0.1120442E+07  0.1594639E+01  0.8140484E+06 -0.1546953E+01  0.1917065E+07 -0.7422853E-01  0.4757564E+06 -0.1546892E+01  0.6548226E+06 -0.1546887E+01  0.2688549E-01 -0.8933630E-01
  0.5890500E+00  0.1324280E+07  0.1611331E+01  0.9621446E+06 -0.1530262E+01  0.1676236E+07 -0.1064598E+00  0.5883974E+06 -0.1530313E+01  0.8098592E+06 -0.1530314E+01  0.1932562E-01 -0.1667417E+00
  0.6545000E+00  0.1546025E+07  0.1638076E+01  0.1123252E+07 -0.1503517E+01  0.1444604E+07 -0.1504338E+00  0.7121864E+06 -0.1503426E+01  0.9802407E+06 -0.1503426E+01  0.7127328E-02 -0.6286128E+00
  0.7199500E+00  0.1764022E+07  0.1676257E+01  0.1281636E+07 -0.1465336E+01  0.1227838E+07 -0.2030298E+00  0.8412676E+06 -0.1465054E+01  0.1157906E+07 -0.1465054E+01  0.1796263E-01 -0.2845054E+01
  0.7854000E+00  0.1956600E+07  0.1724478E+01  0.1421553E+07 -0.1417114E+01  0.1031931E+07 -0.2670646E+00  0.9548465E+06 -0.1417005E+01  0.1314234E+07 -0.1417005E+01  0.5666748E-01 -0.3030683E+01
Zone t="Diffraction force - beta = 153.000 deg",I=     5,F=POINT
  0.5236000E+00  0.1233992E+07  0.1594639E+01  0.6287503E+06 -0.1546950E+01  0.1917065E+07 -0.7422855E-01  0.3674626E+06 -0.1546891E+01  0.7211856E+06 -0.1546888E+01  0.2360475E-01 -0.1012570E+00
  0.5890500E+00  0.1458488E+07  0.1611331E+01  0.7431358E+06 -0.1530260E+01  0.1676237E+07 -0.1064598E+00  0.4544633E+06 -0.1530314E+01  0.8919345E+06 -0.1530314E+01  0.1272250E-01 -0.2553425E+00
  0.6545000E+00  0.1702707E+07  0.1638076E+01  0.8675716E+06 -0.1503516E+01  0.1444605E+07 -0.1504337E+00  0.5500748E+06 -0.1503426E+01  0.1079583E+07 -0.1503426E+01  0.8886778E-02 -0.2650404E+01
  0.7199500E+00  0.1942795E+07  0.1676257E+01  0.9899031E+06 -0.1465336E+01  0.1227839E+07 -0.2030294E+00  0.6497739E+06 -0.1465054E+01  0.1275253E+07 -0.1465055E+01  0.4377598E-01 -0.3021868E+01
  0.7854000E+00  0.2154891E+07  0.1724479E+01  0.1097971E+07 -0.1417115E+01  0.1031931E+07 -0.2670645E+00  0.7374993E+06 -0.1417007E+01  0.1447425E+07 -0.1417006E+01  0.1056006E+00 -0.3082021E+01
Zone t="Diffraction force - beta = 162.000 deg",I=     5,F=POINT
  0.5236000E+00  0.1317158E+07  0.1594638E+01  0.4279706E+06 -0.1546955E+01  0.1917066E+07 -0.7422870E-01  0.2501201E+06 -0.1546890E+01  0.7697901E+06 -0.1546889E+01  0.2361927E-01 -0.1010588E+00
  0.5890500E+00  0.1556783E+07  0.1611331E+01  0.5058294E+06 -0.1530263E+01  0.1676236E+07 -0.1064600E+00  0.3093393E+06 -0.1530310E+01  0.9520468E+06 -0.1530314E+01  0.1268512E-01 -0.2564642E+00
  0.6545000E+00  0.1817461E+07  0.1638076E+01  0.5905289E+06 -0.1503516E+01  0.1444605E+07 -0.1504337E+00  0.3744186E+06 -0.1503425E+01  0.1152342E+07 -0.1503426E+01  0.8849662E-02 -0.2647088E+01
  0.7199500E+00  0.2073731E+07  0.1676257E+01  0.6737964E+06 -0.1465336E+01  0.1227839E+07 -0.2030294E+00  0.4422807E+06 -0.1465053E+01  0.1361200E+07 -0.1465054E+01  0.4380818E-01 -0.3021425E+01
  0.7854000E+00  0.2300122E+07  0.1724478E+01  0.7473544E+06 -0.1417114E+01  0.1031931E+07 -0.2670646E+00  0.5019926E+06 -0.1417008E+01  0.1544974E+07 -0.1417006E+01  0.1056655E+00 -0.3081813E+01
Zone t="Diffraction force - beta = 171.000 deg",I=     5,F=POINT
  0.5236000E+00  0.1367892E+07  0.1594638E+01  0.2166526E+06 -0.1546950E+01  0.1917064E+07 -0.7422898E-01  0.1266193E+06 -0.1546894E+01  0.7994398E+06 -0.1546888E+01  0.2685557E-01 -0.8929398E-01
  0.5890500E+00  0.1616746E+07  0.1611331E+01  0.2560672E+06 -0.1530264E+01  0.1676235E+07 -0.1064601E+00  0.1565976E+06 -0.1530318E+01  0.9887172E+06 -0.1530314E+01  0.1925237E-01 -0.1663743E+00
  0.6545000E+00  0.1887466E+07  0.1638076E+01  0.2989449E+06 -0.1503518E+01  0.1444606E+07 -0.1504336E+00  0.1895429E+06 -0.1503428E+01  0.1196727E+07 -0.1503426E+01  0.7114796E-02 -0.6293042E+00
  0.7199500E+00  0.2153604E+07  0.1676257E+01  0.3410976E+06 -0.1465337E+01  0.1227838E+07 -0.2030295E+00  0.2238970E+06 -0.1465055E+01  0.1413630E+07 -0.1465054E+01  0.1802792E-01 -0.2845151E+01
  0.7854000E+00  0.2388718E+07  0.1724478E+01  0.3783352E+06 -0.1417114E+01  0.1031931E+07 -0.2670646E+00  0.2541249E+06 -0.1417004E+01  0.1604481E+07 -0.1417005E+01  0.5679793E-01 -0.3030122E+01
Zone t="Diffraction force - beta = 180.000 deg",I=     5,F=POINT
  0.5236000E+00  0.1384941E+07  0.1594638E+01  0.3151724E+00  0.3889484E+00  0.1917066E+07 -0.7422882E-01  0.5350916E+00 -0.2315415E+01  0.8094048E+06 -0.1546889E+01  0.3211693E-01 -0.7460438E-01
  0.5890500E+00  0.1636898E+07  0.1611331E+01  0.2839758E+00  0.2294828E+01  0.1676236E+07 -0.1064600E+00  0.7495242E+00 -0.5667494E+00  0.1001041E+07 -0.1530314E+01  0.3004453E-01 -0.1066320E+00
  0.6545000E+00  0.1910992E+07  0.1638076E+01  0.4548095E+00  0.2531863E+01  0.1444605E+07 -0.1504337E+00  0.6009920E+00 -0.8595929E-01  0.1211644E+07 -0.1503426E+01  0.2794075E-01 -0.1513899E+00
  0.7199500E+00  0.2180451E+07  0.1676257E+01  0.4582727E+00  0.2531700E+01  0.1227840E+07 -0.2030298E+00  0.1007646E+00  0.2905731E+01  0.1431250E+07 -0.1465054E+01  0.2578610E-01 -0.2065738E+00
  0.7854000E+00  0.2418492E+07  0.1724478E+01  0.4569326E+00  0.2370366E+01  0.1031932E+07 -0.2670645E+00  0.6040874E+00  0.2200890E+01  0.1624482E+07 -0.1417005E+01  0.2367609E-01 -0.2696859E+00
Zone t="Diffraction force - beta = 189.000 deg",I=     5,F=POINT
  0.5236000E+00  0.1367892E+07  0.1594638E+01  0.2166529E+06  0.1594640E+01  0.1917066E+07 -0.7422905E-01  0.1266185E+06  0.1594711E+01  0.7994398E+06 -0.1546889E+01  0.3729697E-01 -0.6399842E-01
  0.5890500E+00  0.1616746E+07  0.1611331E+01  0.2560677E+06  0.1611330E+01  0.1676236E+07 -0.1064603E+00  0.1565969E+06  0.1611267E+01  0.9887168E+06 -0.1530314E+01  0.4091374E-01 -0.7882583E-01
  0.6545000E+00  0.1887466E+07  0.1638076E+01  0.2989452E+06  0.1638076E+01  0.1444606E+07 -0.1504340E+00  0.1895431E+06  0.1638164E+01  0.1196727E+07 -0.1503426E+01  0.4967505E-01 -0.8489765E-01
  0.7199500E+00  0.2153605E+07  0.1676257E+01  0.3410975E+06  0.1676258E+01  0.1227838E+07 -0.2030296E+00  0.2238969E+06  0.1676539E+01  0.1413629E+07 -0.1465054E+01  0.6792261E-01 -0.7730597E-01
  0.7854000E+00  0.2388714E+07  0.1724478E+01  0.3783362E+06  0.1724479E+01  0.1031932E+07 -0.2670643E+00  0.2541253E+06  0.1724591E+01  0.1604482E+07 -0.1417005E+01  0.1023247E+00 -0.6134860E-01
Zone t="Diffraction force - beta = 198.000 deg",I=     5,F=POINT
  0.5236000E+00  0.1317158E+07  0.1594638E+01  0.4279705E+06  0.1594635E+01  0.1917066E+07 -0.7422926E-01  0.2501195E+06  0.1594709E+01  0.7697896E+06 -0.1546889E+01  0.4052953E-01 -0.5919501E-01
  0.5890500E+00  0.1556784E+07  0.1611331E+01  0.5058299E+06  0.1611329E+01  0.1676237E+07 -0.1064602E+00  0.3093382E+06  0.1611281E+01  0.9520468E+06 -0.1530314E+01  0.4747179E-01 -0.6756835E-01
  0.6545000E+00  0.1817461E+07  0.1638076E+01  0.5905291E+06  0.1638077E+01  0.1444605E+07 -0.1504337E+00  0.3744189E+06  0.1638166E+01  0.1152342E+07 -0.1503426E+01  0.6315272E-01 -0.6616220E-01
  0.7199500E+00  0.2073732E+07  0.1676257E+01  0.6737964E+06  0.1676256E+01  0.1227839E+07 -0.2030294E+00  0.4422799E+06  0.1676539E+01  0.1361200E+07 -0.1465055E+01  0.9419179E-01 -0.5549982E-01
  0.7854000E+00  0.2300121E+07  0.1724478E+01  0.7473554E+06  0.1724479E+01  0.1031931E+07 -0.2670646E+00  0.5019931E+06  0.1724587E+01  0.1544975E+07 -0.1417005E+01  0.1513135E+00 -0.4156290E-01
Zone t="Diffraction force - beta = 207.000 deg",I=     5,F=POINT
  0.5236000E+00  0.1233992E+07  0.1594638E+01  0.6287507E+06  0.1594641E+01  0.1917066E+07 -0.7422918E-01  0.3674620E+06  0.1594708E+01  0.7211851E+06 -0.1546889E+01  0.4053082E-01 -0.5894308E-01
  0.5890500E+00  0.1458487E+07  0.1611331E+01  0.7431371E+06  0.1611332E+01  0.1676238E+07 -0.1064601E+00  0.4544624E+06  0.1611275E+01  0.8919339E+06 -0.1530314E+01  0.4753029E-01 -0.6793881E-01
  0.6545000E+00  0.1702707E+07  0.1638076E+01  0.8675725E+06  0.1638077E+01  0.1444606E+07 -0.1504341E+00  0.5500753E+06  0.1638165E+01  0.1079583E+07 -0.1503426E+01  0.6319129E-01 -0.6672394E-01
  0.7199500E+00  0.1942795E+07  0.1676257E+01  0.9899036E+06  0.1676257E+01  0.1227839E+07 -0.2030294E+00  0.6497738E+06  0.1676539E+01  0.1275253E+07 -0.1465054E+01  0.9421151E-01 -0.5553603E-01
  0.7854000E+00  0.2154892E+07  0.1724479E+01  0.1097972E+07  0.1724478E+01  0.1031931E+07 -0.2670646E+00  0.7374996E+06  0.1724587E+01  0.1447424E+07 -0.1417006E+01  0.1512946E+00 -0.4153911E-01
Zone t="Diffraction force - beta = 216.000 deg",I=     5,F=POINT
  0.5236000E+00  0.1120442E+07  0.1594638E+01  0.8140484E+06  0.1594639E+01  0.1917066E+07 -0.7422940E-01  0.4757559E+06  0.1594703E+01  0.6548225E+06 -0.1546888E+01  0.3729663E-01 -0.6415675E-01
  0.5890500E+00  0.1324279E+07  0.1611331E+01  0.9621449E+06  0.1611330E+01  0.1676237E+07 -0.1064605E+00  0.5883971E+06  0.1611277E+01  0.8098596E+06 -0.1530314E+01  0.4079723E-01 -0.7870114E-01
  0.6545000E+00  0.1546025E+07  0.1638076E+01  0.1123253E+07  0.1638076E+01  0.1444605E+07 -0.1504341E+00  0.7121865E+06  0.1638167E+01  0.9802409E+06 -0.1503426E+01  0.4967508E-01 -0.8470370E-01
  0.7199500E+00  0.1764021E+07  0.1676257E+01  0.1281636E+07  0.1676257E+01  0.1227838E+07 -0.2030296E+00  0.8412672E+06  0.1676538E+01  0.1157906E+07 -0.1465054E+01  0.6801386E-01 -0.7694803E-01
  0.7854000E+00  0.1956599E+07  0.1724478E+01  0.1421553E+07  0.1724478E+01  0.1031932E+07 -0.2670644E+00  0.9548467E+06  0.1724588E+01  0.1314234E+07 -0.1417005E+01  0.1024365E+00 -0.6131040E-01
Zone t="Diffraction force - beta = 225.000 deg",I=     5,F=POINT
  0.5236000E+00  0.9793017E+06  0.1594638E+01  0.9793017E+06  0.1594637E+01  0.1917068E+07 -0.7422955E-01  0.5723350E+06  0.1594704E+01  0.5723356E+06 -0.1546888E+01  0.3209502E-01 -0.7417958E-01
  0.5890500E+00  0.1157462E+07  0.1611331E+01  0.1157462E+07  0.1611331E+01  0.1676237E+07 -0.1064604E+00  0.7078421E+06  0.1611277E+01  0.7078434E+06 -0.1530315E+01  0.3004841E-01 -0.1072616E+00
  0.6545000E+00  0.1351276E+07  0.1638076E+01  0.1351276E+07  0.1638076E+01  0.1444606E+07 -0.1504339E+00  0.8567615E+06  0.1638167E+01  0.8567624E+06 -0.1503426E+01  0.2790624E-01 -0.1505999E+00
  0.7199500E+00  0.1541811E+07  0.1676257E+01  0.1541812E+07  0.1676257E+01  0.1227840E+07 -0.2030298E+00  0.1012046E+07  0.1676539E+01  0.1012046E+07 -0.1465055E+01  0.2588046E-01 -0.2047465E+00
  0.7854000E+00  0.1710131E+07  0.1724478E+01  0.1710131E+07  0.1724479E+01  0.1031932E+07 -0.2670645E+00  0.1148682E+07  0.1724587E+01  0.1148682E+07 -0.1417005E+01  0.2373677E-01 -0.2681512E+00
Zone t="Diffraction force - beta = 234.000 deg",I=     5,F=POINT
  0.5236000E+00  0.8140479E+06  0.1594638E+01  0.1120442E+07  0.1594637E+01  0.1917067E+07 -0.7422959E-01  0.6548224E+06  0.1594703E+01  0.4757560E+06 -0.1546887E+01  0.2687286E-01 -0.8866622E-01
  0.5890500E+00  0.9621438E+06  0.1611331E+01  0.1324280E+07  0.1611330E+01  0.1676237E+07 -0.1064604E+00  0.8098591E+06  0.1611277E+01  0.5883974E+06 -0.1530314E+01  0.1930647E-01 -0.1660988E+00
  0.6545000E+00  0.1123252E+07  0.1638076E+01  0.1546025E+07  0.1638075E+01  0.1444606E+07 -0.1504340E+00  0.9802408E+06  0.1638166E+01  0.7121862E+06 -0.1503426E+01  0.7094557E-02 -0.6304787E+00
  0.7199500E+00  0.1281636E+07  0.1676257E+01  0.1764021E+07  0.1676257E+01  0.1227838E+07 -0.2030301E+00  0.1157906E+07  0.1676538E+01  0.8412672E+06 -0.1465055E+01  0.1798244E-01 -0.2844234E+01
  0.7854000E+00  0.1421552E+07  0.1724478E+01  0.1956601E+07  0.1724479E+01  0.1031932E+07 -0.2670645E+00  0.1314234E+07  0.1724588E+01  0.9548468E+06 -0.1417005E+01  0.5671807E-01 -0.3029998E+01
Zone t="Diffraction force - beta = 243.000 deg",I=     5,F=POINT
  0.5236000E+00  0.6287498E+06  0.1594638E+01  0.1233993E+07  0.1594639E+01  0.1917067E+07 -0.7422957E-01  0.7211856E+06  0.1594703E+01  0.3674620E+06 -0.1546888E+01  0.2360752E-01 -0.1007888E+00
  0.5890500E+00  0.7431359E+06  0.1611331E+01  0.1458487E+07  0.1611331E+01  0.1676240E+07 -0.1064605E+00  0.8919334E+06  0.1611279E+01  0.4544628E+06 -0.1530314E+01  0.1270304E-01 -0.2545845E+00
  0.6545000E+00  0.8675719E+06  0.1638076E+01  0.1702707E+07  0.1638076E+01  0.1444606E+07 -0.1504340E+00  0.1079583E+07  0.1638165E+01  0.5500749E+06 -0.1503427E+01  0.8856031E-02 -0.2650667E+01
  0.7199500E+00  0.9899033E+06  0.1676257E+01  0.1942794E+07  0.1676257E+01  0.1227840E+07 -0.2030297E+00  0.1275252E+07  0.1676538E+01  0.6497739E+06 -0.1465055E+01  0.4379679E-01 -0.3021150E+01
  0.7854000E+00  0.1097971E+07  0.1724479E+01  0.2154893E+07  0.1724478E+01  0.1031931E+07 -0.2670646E+00  0.1447425E+07  0.1724587E+01  0.7374994E+06 -0.1417005E+01  0.1056520E+00 -0.3081970E+01
Zone t="Diffraction force - beta = 252.000 deg",I=     5,F=POINT
  0.5236000E+00  0.4279697E+06  0.1594638E+01  0.1317158E+07  0.1594637E+01  0.1917066E+07 -0.7422962E-01  0.7697896E+06  0.1594705E+01  0.2501193E+06 -0.1546886E+01  0.2360578E-01 -0.1003485E+00
  0.5890500E+00  0.5058290E+06  0.1611331E+01  0.1556783E+07  0.1611331E+01  0.1676238E+07 -0.1064606E+00  0.9520462E+06  0.1611278E+01  0.3093382E+06 -0.1530315E+01  0.1271513E-01 -0.2551939E+00