VARIABLES="Period (s)" "|Fx| (N/m)" "|Fy| (N/m)" "|Fz| (N/m)" "|Cx| (N)" "|Cy| (N)" "|Cz| (N)" "ang(Fx) (°)" "ang(Fy) (°)" "ang(Fz) (°)" "ang(Cx) (°)" "ang(Cy) (°)" "ang(Cz) (°)"
Zone t="Corps  1"
Zone t="Diffraction force - beta =   0.000 deg",I=     5,F=POINT
 0.5236  0.138494E+07  0.282420E+00  0.191707E+07  0.794951E+00  0.809405E+06  0.321300E-01   -1.37  -93.36  -85.75 -220.72 -181.37  -85.74
 0.5890  0.163690E+07  0.232262E+00  0.167624E+07  0.789071E+00  0.100104E+07  0.300509E-01   -2.32   45.75  -83.90 -122.65 -182.32  -83.87
 0.6545  0.191099E+07  0.308829E+00  0.144461E+07  0.121966E+00  0.121164E+07  0.279244E-01   -3.85   64.38  -81.38  -98.58 -183.86  -81.37
 0.7200  0.218045E+07  0.313018E+00  0.122784E+07  0.153873E+00  0.143125E+07  0.257804E-01   -6.04   61.78  -78.37 -207.66 -186.06  -78.37
 0.7854  0.241849E+07  0.404822E+00  0.103193E+07  0.267259E+00  0.162448E+07  0.236715E-01   -8.81   29.24  -74.70  -92.80 -188.81  -74.56
Zone t="Diffraction force - beta =   9.000 deg",I=     5,F=POINT
 0.5236  0.136789E+07  0.216653E+06  0.191707E+07  0.126618E+06  0.799439E+06  0.372903E-01   -1.37   -1.37  -85.75   -1.37 -181.37  -86.34
 0.5890  0.161675E+07  0.256067E+06  0.167624E+07  0.156597E+06  0.988717E+06  0.408936E-01   -2.32   -2.32  -83.90   -2.32 -182.32  -85.51
 0.6545  0.188747E+07  0.298945E+06  0.144461E+07  0.189543E+06  0.119673E+07  0.496526E-01   -3.85   -3.85  -81.38   -3.86 -183.86  -85.16
 0.7200  0.215360E+07  0.341098E+06  0.122784E+07  0.223897E+06  0.141363E+07  0.679262E-01   -6.04   -6.04  -78.37   -6.06 -186.06  -85.60
 0.7854  0.238872E+07  0.378336E+06  0.103193E+07  0.254125E+06  0.160448E+07  0.102319E+00   -8.81   -8.81  -74.70   -8.81 -188.81  -86.46
Zone t="Diffraction force - beta =  18.000 deg",I=     5,F=POINT
 0.5236  0.131716E+07  0.427971E+06  0.191706E+07  0.250119E+06  0.769790E+06  0.405326E-01   -1.37   -1.37  -85.75   -1.37 -181.37  -86.62
 0.5890  0.155678E+07  0.505830E+06  0.167624E+07  0.309338E+06  0.952047E+06  0.474820E-01   -2.32   -2.32  -83.90   -2.32 -182.32  -86.12
 0.6545  0.181746E+07  0.590529E+06  0.144461E+07  0.374419E+06  0.115234E+07  0.631462E-01   -3.85   -3.85  -81.38   -3.86 -183.86  -86.19
 0.7200  0.207373E+07  0.673797E+06  0.122784E+07  0.442280E+06  0.136120E+07  0.941901E-01   -6.04   -6.04  -78.37   -6.06 -186.06  -86.82
 0.7854  0.230012E+07  0.747355E+06  0.103193E+07  0.501993E+06  0.154497E+07  0.151316E+00   -8.81   -8.81  -74.70   -8.81 -188.81  -87.62
Zone t="Diffraction force - beta =  27.000 deg",I=     5,F=POINT
 0.5236  0.123399E+07  0.628750E+06  0.191706E+07  0.367462E+06  0.721185E+06  0.405287E-01   -1.37   -1.37  -85.75   -1.37 -181.37  -86.62
 0.5890  0.145849E+07  0.743137E+06  0.167624E+07  0.454463E+06  0.891934E+06  0.475225E-01   -2.32   -2.32  -83.90   -2.32 -182.32  -86.13
 0.6545  0.170271E+07  0.867572E+06  0.144461E+07  0.550075E+06  0.107958E+07  0.631849E-01   -3.85   -3.85  -81.38   -3.86 -183.86  -86.17
 0.7200  0.194279E+07  0.989904E+06  0.122784E+07  0.649774E+06  0.127525E+07  0.942172E-01   -6.04   -6.04  -78.37   -6.06 -186.06  -86.81
 0.7854  0.215489E+07  0.109797E+07  0.103193E+07  0.737500E+06  0.144742E+07  0.151306E+00   -8.81   -8.81  -74.70   -8.81 -188.81  -87.61
Zone t="Diffraction force - beta =  36.000 deg",I=     5,F=POINT
 0.5236  0.112044E+07  0.814048E+06  0.191706E+07  0.475756E+06  0.654822E+06  0.373108E-01   -1.37   -1.37  -85.75   -1.37 -181.37  -86.35
 0.5890  0.132428E+07  0.962145E+06  0.167624E+07  0.588396E+06  0.809859E+06  0.408021E-01   -2.32   -2.32  -83.90   -2.32 -182.32  -85.49
 0.6545  0.154603E+07  0.112325E+07  0.144461E+07  0.712186E+06  0.980241E+06  0.497038E-01   -3.85   -3.85  -81.38   -3.86 -183.86  -85.15
 0.7200  0.176402E+07  0.128164E+07  0.122784E+07  0.841267E+06  0.115791E+07  0.679956E-01   -6.04   -6.04  -78.37   -6.06 -186.06  -85.59
 0.7854  0.195660E+07  0.142155E+07  0.103193E+07  0.954847E+06  0.131423E+07  0.102379E+00   -8.81   -8.81  -74.70   -8.81 -188.81  -86.48
Zone t="Diffraction force - beta =  45.000 deg",I=     5,F=POINT
 0.5236  0.979301E+06  0.979302E+06  0.191707E+07  0.572335E+06  0.572335E+06  0.320753E-01   -1.37   -1.37  -85.75   -1.37 -181.37  -85.74
 0.5890  0.115746E+07  0.115746E+07  0.167624E+07  0.707842E+06  0.707843E+06  0.300562E-01   -2.32   -2.32  -83.90   -2.32 -182.32  -83.88
 0.6545  0.135128E+07  0.135128E+07  0.144461E+07  0.856762E+06  0.856762E+06  0.279013E-01   -3.85   -3.85  -81.38   -3.86 -183.86  -81.33
 0.7200  0.154181E+07  0.154181E+07  0.122784E+07  0.101205E+07  0.101205E+07  0.258788E-01   -6.04   -6.04  -78.37   -6.06 -186.06  -78.43
 0.7854  0.171013E+07  0.171013E+07  0.103193E+07  0.114868E+07  0.114868E+07  0.237496E-01   -8.81   -8.81  -74.70   -8.81 -188.81  -74.61
Zone t="Diffraction force - beta =  54.000 deg",I=     5,F=POINT
 0.5236  0.814048E+06  0.112044E+07  0.191706E+07  0.654822E+06  0.475756E+06  0.268806E-01   -1.37   -1.37  -85.75   -1.37 -181.37  -84.90
 0.5890  0.962145E+06  0.132428E+07  0.167624E+07  0.809859E+06  0.588397E+06  0.193187E-01   -2.32   -2.32  -83.90   -2.32 -182.32  -80.44
 0.6545  0.112325E+07  0.154602E+07  0.144461E+07  0.980241E+06  0.712187E+06  0.713346E-02   -3.85   -3.85  -81.38   -3.86 -183.86  -53.85
 0.7200  0.128164E+07  0.176402E+07  0.122784E+07  0.115790E+07  0.841268E+06  0.179577E-01   -6.04   -6.04  -78.37   -6.06 -186.06   73.10
 0.7854  0.142155E+07  0.195660E+07  0.103193E+07  0.131423E+07  0.954846E+06  0.566909E-01   -8.81   -8.81  -74.70   -8.81 -188.81   83.63
Zone t="Diffraction force - beta =  63.000 deg",I=     5,F=POINT
 0.5236  0.628750E+06  0.123399E+07  0.191706E+07  0.721185E+06  0.367462E+06  0.236120E-01   -1.37   -1.37  -85.75   -1.37 -181.37  -84.20
 0.5890  0.743136E+06  0.145849E+07  0.167624E+07  0.891934E+06  0.454463E+06  0.126993E-01   -2.32   -2.32  -83.90   -2.32 -182.32  -75.33
 0.6545  0.867572E+06  0.170271E+07  0.144461E+07  0.107958E+07  0.550075E+06  0.889232E-02   -3.85   -3.85  -81.38   -3.86 -183.86   61.97
 0.7200  0.989904E+06  0.194279E+07  0.122784E+07  0.127525E+07  0.649774E+06  0.437938E-01   -6.04   -6.04  -78.37   -6.06 -186.06   83.11
 0.7854  0.109797E+07  0.215489E+07  0.103193E+07  0.144742E+07  0.737500E+06  0.105604E+00   -8.81   -8.81  -74.70   -8.81 -188.81   86.58
Zone t="Diffraction force - beta =  72.000 deg",I=     5,F=POINT
 0.5236  0.427970E+06  0.131716E+07  0.191706E+07  0.769789E+06  0.250119E+06  0.236082E-01   -1.37   -1.37  -85.75   -1.37 -181.37  -84.23
 0.5890  0.505830E+06  0.155678E+07  0.167624E+07  0.952046E+06  0.309339E+06  0.127038E-01   -2.32   -2.32  -83.90   -2.32 -182.32  -75.30
 0.6545  0.590529E+06  0.181746E+07  0.144461E+07  0.115234E+07  0.374419E+06  0.887138E-02   -3.85   -3.85  -81.38   -3.86 -183.86   61.65
 0.7200  0.673796E+06  0.207373E+07  0.122784E+07  0.136120E+07  0.442281E+06  0.438062E-01   -6.04   -6.04  -78.37   -6.06 -186.06   83.09
 0.7854  0.747355E+06  0.230012E+07  0.103193E+07  0.154497E+07  0.501993E+06  0.105670E+00   -8.81   -8.81  -74.70   -8.81 -188.81   86.57
Zone t="Diffraction force - beta =  81.000 deg",I=     5,F=POINT
 0.5236  0.216652E+06  0.136789E+07  0.191706E+07  0.799440E+06  0.126618E+06  0.268589E-01   -1.37   -1.37  -85.75   -1.37 -181.37  -84.92
 0.5890  0.256067E+06  0.161675E+07  0.167624E+07  0.988716E+06  0.156597E+06  0.192549E-01   -2.32   -2.32  -83.90   -2.32 -182.32  -80.44
 0.6545  0.298945E+06  0.188746E+07  0.144461E+07  0.119673E+07  0.189543E+06  0.707286E-02   -3.85   -3.85  -81.38   -3.86 -183.86  -53.78
 0.7200  0.341097E+06  0.215360E+07  0.122784E+07  0.141363E+07  0.223897E+06  0.180197E-01   -6.04   -6.04  -78.37   -6.06 -186.06   72.99
 0.7854  0.378336E+06  0.238872E+07  0.103193E+07  0.160448E+07  0.254125E+06  0.567716E-01   -8.81   -8.81  -74.70   -8.81 -188.81   83.65
Zone t="Diffraction force - beta =  90.000 deg",I=     5,F=POINT
 0.5236  0.373991E+00  0.138494E+07  0.191706E+07  0.809404E+06  0.102357E+01  0.321252E-01 -180.80   -1.37  -85.75   -1.37  -71.53  -85.73
 0.5890  0.285791E+00  0.163690E+07  0.167624E+07  0.100104E+07  0.488982E+00  0.300522E-01 -221.56   -2.32  -83.90   -2.32  -30.44  -83.86
 0.6545  0.230089E+00  0.191099E+07  0.144461E+07  0.121164E+07  0.256826E+00  0.279115E-01 -207.54   -3.85  -81.38   -3.86   89.28  -81.38
 0.7200  0.274201E+00  0.218045E+07  0.122784E+07  0.143125E+07  0.296340E+00  0.257822E-01 -228.29   -6.04  -78.37   -6.06 -256.46  -78.28
 0.7854  0.209500E+00  0.241849E+07  0.103193E+07  0.162448E+07  0.146969E+00  0.236622E-01  -49.54   -8.81  -74.70   -8.81 -163.60  -74.57
Zone t="Diffraction force - beta =  99.000 deg",I=     5,F=POINT
 0.5236  0.216653E+06  0.136789E+07  0.191706E+07  0.799440E+06  0.126619E+06  0.372810E-01 -181.37   -1.37  -85.75   -1.37   -1.37  -86.35
 0.5890  0.256068E+06  0.161675E+07  0.167624E+07  0.988716E+06  0.156598E+06  0.408838E-01 -182.32   -2.32  -83.90   -2.32   -2.32  -85.48
 0.6545  0.298945E+06  0.188746E+07  0.144461E+07  0.119673E+07  0.189543E+06  0.496322E-01 -183.85   -3.85  -81.38   -3.86   -3.86  -85.13
 0.7200  0.341098E+06  0.215360E+07  0.122784E+07  0.141363E+07  0.223897E+06  0.679145E-01 -186.04   -6.04  -78.37   -6.06   -6.06  -85.57
 0.7854  0.378335E+06  0.238872E+07  0.103193E+07  0.160448E+07  0.254125E+06  0.102303E+00 -188.81   -8.81  -74.70   -8.81   -8.81  -86.46
Zone t="Diffraction force - beta = 108.000 deg",I=     5,F=POINT
 0.5236  0.427971E+06  0.131716E+07  0.191706E+07  0.769790E+06  0.250120E+06  0.405389E-01 -181.37   -1.37  -85.75   -1.37   -1.37  -86.62
 0.5890  0.505830E+06  0.155678E+07  0.167624E+07  0.952046E+06  0.309339E+06  0.474748E-01 -182.32   -2.32  -83.90   -2.32   -2.32  -86.13
 0.6545  0.590529E+06  0.181746E+07  0.144461E+07  0.115234E+07  0.374419E+06  0.631523E-01 -183.85   -3.85  -81.38   -3.86   -3.86  -86.21
 0.7200  0.673797E+06  0.207373E+07  0.122784E+07  0.136120E+07  0.442281E+06  0.942028E-01 -186.04   -6.04  -78.37   -6.06   -6.06  -86.83
 0.7854  0.747354E+06  0.230012E+07  0.103193E+07  0.154497E+07  0.501992E+06  0.151311E+00 -188.81   -8.81  -74.70   -8.81   -8.81  -87.62
Zone t="Diffraction force - beta = 117.000 deg",I=     5,F=POINT
 0.5236  0.628751E+06  0.123399E+07  0.191707E+07  0.721185E+06  0.367463E+06  0.405260E-01 -181.37   -1.37  -85.75   -1.37   -1.37  -86.62
 0.5890  0.743137E+06  0.145849E+07  0.167624E+07  0.891934E+06  0.454464E+06  0.475271E-01 -182.32   -2.32  -83.90   -2.32   -2.32  -86.12
 0.6545  0.867572E+06  0.170271E+07  0.144461E+07  0.107958E+07  0.550075E+06  0.631628E-01 -183.85   -3.85  -81.38   -3.86   -3.86  -86.19
 0.7200  0.989904E+06  0.194279E+07  0.122784E+07  0.127525E+07  0.649775E+06  0.942004E-01 -186.04   -6.04  -78.37   -6.06   -6.06  -86.81
 0.7854  0.109797E+07  0.215489E+07  0.103193E+07  0.144742E+07  0.737500E+06  0.151297E+00 -188.81   -8.81  -74.70   -8.81   -8.81  -87.62
Zone t="Diffraction force - beta = 126.000 deg",I=     5,F=POINT
 0.5236  0.814049E+06  0.112044E+07  0.191707E+07  0.654822E+06  0.475757E+06  0.373180E-01 -181.37   -1.37  -85.75   -1.37   -1.37  -86.34
 0.5890  0.962146E+06  0.132428E+07  0.167624E+07  0.809859E+06  0.588398E+06  0.408110E-01 -182.32   -2.32  -83.90   -2.32   -2.32  -85.53
 0.6545  0.112325E+07  0.154603E+07  0.144461E+07  0.980240E+06  0.712187E+06  0.496999E-01 -183.85   -3.85  -81.38   -3.86   -3.86  -85.16
 0.7200  0.128164E+07  0.176402E+07  0.122784E+07  0.115790E+07  0.841268E+06  0.680024E-01 -186.04   -6.04  -78.37   -6.06   -6.06  -85.58
 0.7854  0.142155E+07  0.195660E+07  0.103193E+07  0.131423E+07  0.954847E+06  0.102400E+00 -188.81   -8.81  -74.70   -8.81   -8.81  -86.48
Zone t="Diffraction force - beta = 135.000 deg",I=     5,F=POINT
 0.5236  0.979302E+06  0.979301E+06  0.191707E+07  0.572336E+06  0.572336E+06  0.320889E-01 -181.37   -1.37  -85.75   -1.37   -1.37  -85.73
 0.5890  0.115746E+07  0.115746E+07  0.167624E+07  0.707843E+06  0.707844E+06  0.300773E-01 -182.32   -2.32  -83.90   -2.32   -2.32  -83.85
 0.6545  0.135128E+07  0.135128E+07  0.144461E+07  0.856762E+06  0.856762E+06  0.278992E-01 -183.85   -3.85  -81.38   -3.86   -3.86  -81.33
 0.7200  0.154181E+07  0.154181E+07  0.122784E+07  0.101205E+07  0.101205E+07  0.258799E-01 -186.04   -6.04  -78.37   -6.06   -6.06  -78.30
 0.7854  0.171013E+07  0.171013E+07  0.103193E+07  0.114868E+07  0.114868E+07  0.237545E-01 -188.81   -8.81  -74.70   -8.81   -8.81  -74.63
Zone t="Diffraction force - beta = 144.000 deg",I=     5,F=POINT
 0.5236  0.112044E+07  0.814048E+06  0.191706E+07  0.475756E+06  0.654823E+06  0.268855E-01 -181.37   -1.37  -85.75   -1.37   -1.37  -84.88
 0.5890  0.132428E+07  0.962145E+06  0.167624E+07  0.588397E+06  0.809859E+06  0.193256E-01 -182.32   -2.32  -83.90   -2.32   -2.32  -80.45
 0.6545  0.154603E+07  0.112325E+07  0.144460E+07  0.712186E+06  0.980241E+06  0.712733E-02 -183.85   -3.85  -81.38   -3.86   -3.86  -53.98
 0.7200  0.176402E+07  0.128164E+07  0.122784E+07  0.841268E+06  0.115791E+07  0.179626E-01 -186.04   -6.04  -78.37   -6.06   -6.06   73.01
 0.7854  0.195660E+07  0.142155E+07  0.103193E+07  0.954846E+06  0.131423E+07  0.566675E-01 -188.81   -8.81  -74.70   -8.81   -8.81   83.65
Zone t="Diffraction force - beta = 153.000 deg",I=     5,F=POINT
 0.5236  0.123399E+07  0.628750E+06  0.191706E+07  0.367463E+06  0.721186E+06  0.236048E-01 -181.37   -1.37  -85.75   -1.37   -1.37  -84.20
 0.5890  0.145849E+07  0.743136E+06  0.167624E+07  0.454463E+06  0.891934E+06  0.127225E-01 -182.32   -2.32  -83.90   -2.32   -2.32  -75.37
 0.6545  0.170271E+07  0.867572E+06  0.144461E+07  0.550075E+06  0.107958E+07  0.888678E-02 -183.85   -3.85  -81.38   -3.86   -3.86   61.86
 0.7200  0.194279E+07  0.989903E+06  0.122784E+07  0.649774E+06  0.127525E+07  0.437760E-01 -186.04   -6.04  -78.37   -6.06   -6.06   83.14
 0.7854  0.215489E+07  0.109797E+07  0.103193E+07  0.737499E+06  0.144742E+07  0.105601E+00 -188.81   -8.81  -74.70   -8.81   -8.81   86.59
Zone t="Diffraction force - beta = 162.000 deg",I=     5,F=POINT
 0.5236  0.131716E+07  0.427971E+06  0.191707E+07  0.250120E+06  0.769790E+06  0.236193E-01 -181.37   -1.37  -85.75   -1.37   -1.37  -84.21
 0.5890  0.155678E+07  0.505829E+06  0.167624E+07  0.309339E+06  0.952047E+06  0.126851E-01 -182.32   -2.32  -83.90   -2.32   -2.32  -75.31
 0.6545  0.181746E+07  0.590529E+06  0.144461E+07  0.374419E+06  0.115234E+07  0.884966E-02 -183.85   -3.85  -81.38   -3.86   -3.86   61.67
 0.7200  0.207373E+07  0.673796E+06  0.122784E+07  0.442281E+06  0.136120E+07  0.438082E-01 -186.04   -6.04  -78.37   -6.06   -6.06   83.11
 0.7854  0.230012E+07  0.747354E+06  0.103193E+07  0.501993E+06  0.154497E+07  0.105665E+00 -188.81   -8.81  -74.70   -8.81   -8.81   86.57
Zone t="Diffraction force - beta = 171.000 deg",I=     5,F=POINT
 0.5236  0.136789E+07  0.216653E+06  0.191706E+07  0.126619E+06  0.799440E+06  0.268556E-01 -181.37   -1.37  -85.75   -1.37   -1.37  -84.88
 0.5890  0.161675E+07  0.256067E+06  0.167624E+07  0.156598E+06  0.988717E+06  0.192524E-01 -182.32   -2.32  -83.90   -2.32   -2.32  -80.47
 0.6545  0.188747E+07  0.298945E+06  0.144461E+07  0.189543E+06  0.119673E+07  0.711480E-02 -183.85   -3.85  -81.38   -3.86   -3.86  -53.94
 0.7200  0.215360E+07  0.341098E+06  0.122784E+07  0.223897E+06  0.141363E+07  0.180279E-01 -186.04   -6.04  -78.37   -6.06   -6.06   73.02
 0.7854  0.238872E+07  0.378335E+06  0.103193E+07  0.254125E+06  0.160448E+07  0.567979E-01 -188.81   -8.81  -74.70   -8.81   -8.81   83.61
Zone t="Diffraction force - beta = 180.000 deg",I=     5,F=POINT
 0.5236  0.138494E+07  0.315172E+00  0.191707E+07  0.535092E+00  0.809405E+06  0.321169E-01 -181.37 -112.29  -85.75   42.66   -1.37  -85.73
 0.5890  0.163690E+07  0.283976E+00  0.167624E+07  0.749524E+00  0.100104E+07  0.300445E-01 -182.32 -221.48  -83.90  -57.53   -2.32  -83.89
 0.6545  0.191099E+07  0.454810E+00  0.144461E+07  0.600992E+00  0.121164E+07  0.279407E-01 -183.85 -235.07  -81.38  -85.07   -3.86  -81.33
 0.7200  0.218045E+07  0.458273E+00  0.122784E+07  0.100765E+00  0.143125E+07  0.257861E-01 -186.04 -235.06  -78.37 -256.49   -6.06  -78.16
 0.7854  0.241849E+07  0.456933E+00  0.103193E+07  0.604087E+00  0.162448E+07  0.236761E-01 -188.81 -225.81  -74.70 -216.10   -8.81  -74.55
Zone t="Diffraction force - beta = 189.000 deg",I=     5,F=POINT
 0.5236  0.136789E+07  0.216653E+06  0.191707E+07  0.126619E+06  0.799440E+06  0.372970E-01 -181.37 -181.37  -85.75 -181.37   -1.37  -86.33
 0.5890  0.161675E+07  0.256068E+06  0.167624E+07  0.156597E+06  0.988717E+06  0.409137E-01 -182.32 -182.32  -83.90 -182.32   -2.32  -85.48
 0.6545  0.188747E+07  0.298945E+06  0.144461E+07  0.189543E+06  0.119673E+07  0.496751E-01 -183.85 -183.85  -81.38 -183.86   -3.86  -85.14
 0.7200  0.215360E+07  0.341097E+06  0.122784E+07  0.223897E+06  0.141363E+07  0.679226E-01 -186.04 -186.04  -78.37 -186.06   -6.06  -85.57
 0.7854  0.238871E+07  0.378336E+06  0.103193E+07  0.254125E+06  0.160448E+07  0.102325E+00 -188.81 -188.81  -74.70 -188.81   -8.81  -86.48
Zone t="Diffraction force - beta = 198.000 deg",I=     5,F=POINT
 0.5236  0.131716E+07  0.427970E+06  0.191707E+07  0.250120E+06  0.769790E+06  0.405295E-01 -181.37 -181.37  -85.75 -181.37   -1.37  -86.61
 0.5890  0.155678E+07  0.505830E+06  0.167624E+07  0.309338E+06  0.952047E+06  0.474718E-01 -182.32 -182.32  -83.90 -182.32   -2.32  -86.13
 0.6545  0.181746E+07  0.590529E+06  0.144461E+07  0.374419E+06  0.115234E+07  0.631527E-01 -183.85 -183.85  -81.38 -183.86   -3.86  -86.21
 0.7200  0.207373E+07  0.673796E+06  0.122784E+07  0.442280E+06  0.136120E+07  0.941918E-01 -186.04 -186.04  -78.37 -186.06   -6.06  -86.82
 0.7854  0.230012E+07  0.747355E+06  0.103193E+07  0.501993E+06  0.154497E+07  0.151313E+00 -188.81 -188.81  -74.70 -188.81   -8.81  -87.62
Zone t="Diffraction force - beta = 207.000 deg",I=     5,F=POINT
 0.5236  0.123399E+07  0.628751E+06  0.191707E+07  0.367462E+06  0.721185E+06  0.405308E-01 -181.37 -181.37  -85.75 -181.37   -1.37  -86.62
 0.5890  0.145849E+07  0.743137E+06  0.167624E+07  0.454462E+06  0.891934E+06  0.475303E-01 -182.32 -182.32  -83.90 -182.32   -2.32  -86.11
 0.6545  0.170271E+07  0.867572E+06  0.144461E+07  0.550075E+06  0.107958E+07  0.631913E-01 -183.85 -183.85  -81.38 -183.86   -3.86  -86.18
 0.7200  0.194279E+07  0.989904E+06  0.122784E+07  0.649774E+06  0.127525E+07  0.942115E-01 -186.04 -186.04  -78.37 -186.06   -6.06  -86.82
 0.7854  0.215489E+07  0.109797E+07  0.103193E+07  0.737500E+06  0.144742E+07  0.151295E+00 -188.81 -188.81  -74.70 -188.81   -8.81  -87.62
Zone t="Diffraction force - beta = 216.000 deg",I=     5,F=POINT
 0.5236  0.112044E+07  0.814048E+06  0.191707E+07  0.475756E+06  0.654822E+06  0.372966E-01 -181.37 -181.37  -85.75 -181.37   -1.37  -86.32
 0.5890  0.132428E+07  0.962145E+06  0.167624E+07  0.588397E+06  0.809860E+06  0.407972E-01 -182.32 -182.32  -83.90 -182.32   -2.32  -85.49
 0.6545  0.154603E+07  0.112325E+07  0.144461E+07  0.712186E+06  0.980241E+06  0.496751E-01 -183.85 -183.85  -81.38 -183.86   -3.86  -85.15
 0.7200  0.176402E+07  0.128164E+07  0.122784E+07  0.841267E+06  0.115791E+07  0.680139E-01 -186.04 -186.04  -78.37 -186.06   -6.06  -85.59
 0.7854  0.195660E+07  0.142155E+07  0.103193E+07  0.954847E+06  0.131423E+07  0.102436E+00 -188.81 -188.81  -74.70 -188.81   -8.81  -86.49
Zone t="Diffraction force - beta = 225.000 deg",I=     5,F=POINT
 0.5236  0.979302E+06  0.979302E+06  0.191707E+07  0.572335E+06  0.572336E+06  0.320950E-01 -181.37 -181.37  -85.75 -181.37   -1.37  -85.75
 0.5890  0.115746E+07  0.115746E+07  0.167624E+07  0.707842E+06  0.707843E+06  0.300484E-01 -182.32 -182.32  -83.90 -182.32   -2.32  -83.85
 0.6545  0.135128E+07  0.135128E+07  0.144461E+07  0.856762E+06  0.856762E+06  0.279062E-01 -183.85 -183.85  -81.38 -183.86   -3.86  -81.37
 0.7200  0.154181E+07  0.154181E+07  0.122784E+07  0.101205E+07  0.101205E+07  0.258805E-01 -186.04 -186.04  -78.37 -186.06   -6.06  -78.27
 0.7854  0.171013E+07  0.171013E+07  0.103193E+07  0.114868E+07  0.114868E+07  0.237368E-01 -188.81 -188.81  -74.70 -188.81   -8.81  -74.64
Zone t="Diffraction force - beta = 234.000 deg",I=     5,F=POINT
 0.5236  0.814048E+06  0.112044E+07  0.191707E+07  0.654822E+06  0.475756E+06  0.268729E-01 -181.37 -181.37  -85.75 -181.37   -1.37  -84.92
 0.5890  0.962144E+06  0.132428E+07  0.167624E+07  0.809859E+06  0.588397E+06  0.193065E-01 -182.32 -182.32  -83.90 -182.32   -2.32  -80.48
 0.6545  0.112325E+07  0.154602E+07  0.144461E+07  0.980241E+06  0.712186E+06  0.709456E-02 -183.85 -183.85  -81.38 -183.86   -3.86  -53.88
 0.7200  0.128164E+07  0.176402E+07  0.122784E+07  0.115791E+07  0.841267E+06  0.179824E-01 -186.04 -186.04  -78.37 -186.06   -6.06   72.96
 0.7854  0.142155E+07  0.195660E+07  0.103193E+07  0.131423E+07  0.954847E+06  0.567181E-01 -188.81 -188.81  -74.70 -188.81   -8.81   83.61
Zone t="Diffraction force - beta = 243.000 deg",I=     5,F=POINT
 0.5236  0.628750E+06  0.123399E+07  0.191707E+07  0.721186E+06  0.367462E+06  0.236075E-01 -181.37 -181.37  -85.75 -181.37   -1.37  -84.23
 0.5890  0.743136E+06  0.145849E+07  0.167624E+07  0.891933E+06  0.454463E+06  0.127030E-01 -182.32 -182.32  -83.90 -182.32   -2.32  -75.41
 0.6545  0.867572E+06  0.170271E+07  0.144461E+07  0.107958E+07  0.550075E+06  0.885603E-02 -183.85 -183.85  -81.38 -183.86   -3.86   61.87
 0.7200  0.989903E+06  0.194279E+07  0.122784E+07  0.127525E+07  0.649774E+06  0.437968E-01 -186.04 -186.04  -78.37 -186.06   -6.06   83.10
 0.7854  0.109797E+07  0.215489E+07  0.103193E+07  0.144742E+07  0.737499E+06  0.105652E+00 -188.81 -188.81  -74.70 -188.81   -8.81   86.58
Zone t="Diffraction force - beta = 252.000 deg",I=     5,F=POINT
 0.5236  0.427970E+06  0.131716E+07  0.191707E+07  0.769790E+06  0.250119E+06  0.236058E-01 -181.37 -181.37  -85.75 -181.37   -1.37  -84.25
 0.5890  0.505829E+06  0.155678E+07  0.167624E+07  0.952046E+06  0.309338E+06  0.127151E-01 -182.32 -182.32  -83.90 -182.32   -2.32  -75.38
 0.6545  0.590528E+06  0.181746E+07  0.144461E+07  0.115234E+07  0.374418E+06  0.884161E-02 -183.85 -183.85  -81.38 -183.86   -3.86   61.76
 0.7200  0.673795E+06  0.207373E+07  0.122784E+07  0.136120E+07  0.442280E+06  0.438006E-01 -186.04 -186.04  -78.37 -186.06   -6.06   83.11
 0.7854  0.747355E+06  0.230012E+07  0.103193E+07  0.154498E+07  0.501992E+06  0.105644E+00 -188.81 -188.81  -74.70 -188.81   -8.81   86.58
Zone t="Diffraction force - beta = 261.000 deg",I=     5,F=POINT
 0.5236  0.216652E+06  0.136789E+07  0.191707E+07  0.799440E+06  0.126619E+06  0.268561E-01 -181.37 -181.37  -85.75 -181.37   -1.37  -84.88
 0.5890  0.256067E+06  0.161675E+07  0.167624E+07  0.988716E+06  0.156597E+06  0.192405E-01 -182.32 -182.32  -83.90 -182.32   -2.32  -80.42
 0.6545  0.298945E+06  0.188746E+07  0.144461E+07  0.119673E+07  0.189543E+06  0.708720E-02 -183.85 -183.85  -81.38 -183.86   -3.86  -53.80
 0.7200  0.341098E+06  0.215360E+07  0.122784E+07  0.141363E+07  0.223897E+06  0.180088E-01 -186.04 -186.04  -78.37 -186.06   -6.06   73.07
 0.7854  0.378336E+06  0.238872E+07  0.103193E+07  0.160448E+07  0.254125E+06  0.567885E-01 -188.81 -188.81  -74.70 -188.81   -8.81   83.65
Zone t="Diffraction force - beta = 270.000 deg",I=     5,F=POINT
 0.5236  0.292620E+00  0.138494E+07  0.191707E+07  0.809405E+06  0.918874E+00  0.321266E-01   -7.50 -181.37  -85.75 -181.37  -87.80  -85.76
 0.5890  0.241540E+00  0.163690E+07  0.167624E+07  0.100104E+07  0.196749E+00  0.300722E-01   32.41 -182.32  -83.90 -182.32 -200.68  -83.91
 0.6545  0.114352E+00  0.191099E+07  0.144461E+07  0.121164E+07  0.279633E+00  0.279262E-01   29.60 -183.85  -81.38 -183.86   69.56  -81.37
 0.7200  0.259569E+00  0.218045E+07  0.122784E+07  0.143125E+07  0.280618E+00  0.257968E-01   44.39 -186.04  -78.37 -186.06 -221.75  -78.29
 0.7854  0.256710E+00  0.241849E+07  0.103193E+07  0.162448E+07  0.305091E+00  0.236894E-01 -166.01 -188.81  -74.70 -188.81  -80.92  -74.54
Zone t="Diffraction force - beta = 279.000 deg",I=     5,F=POINT
 0.5236  0.216653E+06  0.136789E+07  0.191707E+07  0.799440E+06  0.126619E+06  0.372889E-01   -1.37 -181.37  -85.75 -181.37 -181.37  -86.34
 0.5890  0.256068E+06  0.161675E+07  0.167624E+07  0.988716E+06  0.156598E+06  0.408982E-01   -2.32 -182.32  -83.90 -182.32 -182.32  -85.51
 0.6545  0.298945E+06  0.188746E+07  0.144461E+07  0.119673E+07  0.189543E+06  0.496520E-01   -3.85 -183.85  -81.38 -183.86 -183.86  -85.14
 0.7200  0.341098E+06  0.215360E+07  0.122784E+07  0.141363E+07  0.223897E+06  0.679301E-01   -6.04 -186.04  -78.37 -186.06 -186.06  -85.59
 0.7854  0.378335E+06  0.238872E+07  0.103193E+07  0.160448E+07  0.254125E+06  0.102305E+00   -8.81 -188.81  -74.70 -188.81 -188.81  -86.47
Zone t="Diffraction force - beta = 288.000 deg",I=     5,F=POINT
 0.5236  0.427971E+06  0.131716E+07  0.191707E+07  0.769790E+06  0.250120E+06  0.405514E-01   -1.37 -181.37  -85.75 -181.37 -181.37  -86.60
 0.5890  0.505830E+06  0.155678E+07  0.167624E+07  0.952046E+06  0.309339E+06  0.474738E-01   -2.32 -182.32  -83.90 -182.32 -182.32  -86.12
 0.6545  0.590529E+06  0.181746E+07  0.144461E+07  0.115234E+07  0.374419E+06  0.631372E-01   -3.85 -183.85  -81.38 -183.86 -183.86  -86.18
 0.7200  0.673797E+06  0.207373E+07  0.122784E+07  0.136120E+07  0.442281E+06  0.941838E-01   -6.04 -186.04  -78.37 -186.06 -186.06  -86.82
 0.7854  0.747355E+06  0.230012E+07  0.103193E+07  0.154497E+07  0.501993E+06  0.151285E+00   -8.81 -188.81  -74.70 -188.81 -188.81  -87.61
Zone t="Diffraction force - beta = 297.000 deg",I=     5,F=POINT
 0.5236  0.628751E+06  0.123399E+07  0.191707E+07  0.721185E+06  0.367462E+06  0.405314E-01   -1.37 -181.37  -85.75 -181.37 -181.37  -86.64
 0.5890  0.743137E+06  0.145849E+07  0.167624E+07  0.891934E+06  0.454464E+06  0.475264E-01   -2.32 -182.32  -83.90 -182.32 -182.32  -86.11
 0.6545  0.867572E+06  0.170271E+07  0.144461E+07  0.107958E+07  0.550075E+06  0.631615E-01   -3.85 -183.85  -81.38 -183.86 -183.86  -86.17
 0.7200  0.989904E+06  0.194279E+07  0.122784E+07  0.127525E+07  0.649774E+06  0.942082E-01   -6.04 -186.04  -78.37 -186.06 -186.06  -86.82
 0.7854  0.109797E+07  0.215489E+07  0.103193E+07  0.144742E+07  0.737500E+06  0.151338E+00   -8.81 -188.81  -74.70 -188.81 -188.81  -87.61
Zone t="Diffraction force - beta = 306.000 deg",I=     5,F=POINT
 0.5236  0.814049E+06  0.112044E+07  0.191707E+07  0.654822E+06  0.475756E+06  0.373151E-01   -1.37 -181.37  -85.75 -181.37 -181.37  -86.33
 0.5890  0.962146E+06  0.132428E+07  0.167624E+07  0.809859E+06  0.588398E+06  0.408300E-01   -2.32 -182.32  -83.90 -182.32 -182.32  -85.46
 0.6545  0.112325E+07  0.154602E+07  0.144461E+07  0.980240E+06  0.712187E+06  0.496877E-01   -3.85 -183.85  -81.38 -183.86 -183.86  -85.14
 0.7200  0.128164E+07  0.176402E+07  0.122784E+07  0.115791E+07  0.841268E+06  0.679839E-01   -6.04 -186.04  -78.37 -186.06 -186.06  -85.61
 0.7854  0.142155E+07  0.195660E+07  0.103193E+07  0.131423E+07  0.954847E+06  0.102397E+00   -8.81 -188.81  -74.70 -188.81 -188.81  -86.48
Zone t="Diffraction force - beta = 315.000 deg",I=     5,F=POINT
 0.5236  0.979302E+06  0.979302E+06  0.191707E+07  0.572336E+06  0.572336E+06  0.320893E-01   -1.37 -181.37  -85.75 -181.37 -181.37  -85.74
 0.5890  0.115746E+07  0.115746E+07  0.167624E+07  0.707843E+06  0.707843E+06  0.300542E-01   -2.32 -182.32  -83.90 -182.32 -182.32  -83.89
 0.6545  0.135128E+07  0.135128E+07  0.144461E+07  0.856762E+06  0.856762E+06  0.278854E-01   -3.85 -183.85  -81.38 -183.86 -183.86  -81.34
 0.7200  0.154181E+07  0.154181E+07  0.122784E+07  0.101205E+07  0.101205E+07  0.258713E-01   -6.04 -186.04  -78.37 -186.06 -186.06  -78.34
 0.7854  0.171013E+07  0.171013E+07  0.103193E+07  0.114868E+07  0.114868E+07  0.237338E-01   -8.81 -188.81  -74.70 -188.81 -188.81  -74.59
Zone t="Diffraction force - beta = 324.000 deg",I=     5,F=POINT
 0.5236  0.112044E+07  0.814048E+06  0.191707E+07  0.475757E+06  0.654822E+06  0.268906E-01   -1.37 -181.37  -85.75 -181.37 -181.37  -84.92
 0.5890  0.132428E+07  0.962145E+06  0.167624E+07  0.588398E+06  0.809860E+06  0.193357E-01   -2.32 -182.32  -83.90 -182.32 -182.32  -80.43
 0.6545  0.154603E+07  0.112325E+07  0.144460E+07  0.712186E+06  0.980241E+06  0.711957E-02   -3.85 -183.85  -81.38 -183.86 -183.86  -53.79
 0.7200  0.176402E+07  0.128164E+07  0.122784E+07  0.841268E+06  0.115791E+07  0.179844E-01   -6.04 -186.04  -78.37 -186.06 -186.06   73.01
 0.7854  0.195660E+07  0.142155E+07  0.103193E+07  0.954846E+06  0.131423E+07  0.567548E-01   -8.81 -188.81  -74.70 -188.81 -188.81   83.62
Zone t="Diffraction force - beta = 333.000 deg",I=     5,F=POINT
 0.5236  0.123399E+07  0.628750E+06  0.191707E+07  0.367463E+06  0.721185E+06  0.236433E-01   -1.37 -181.37  -85.75 -181.37 -181.37  -84.21
 0.5890  0.145849E+07  0.743136E+06  0.167624E+07  0.454464E+06  0.891934E+06  0.127086E-01   -2.32 -182.32  -83.90 -182.32 -182.32  -75.43
 0.6545  0.170271E+07  0.867572E+06  0.144461E+07  0.550075E+06  0.107958E+07  0.888691E-02   -3.85 -183.85  -81.38 -183.86 -183.86   61.85
 0.7200  0.194279E+07  0.989903E+06  0.122784E+07  0.649774E+06  0.127525E+07  0.437658E-01   -6.04 -186.04  -78.37 -186.06 -186.06   83.08
 0.7854  0.215489E+07  0.109797E+07  0.103193E+07  0.737500E+06  0.144742E+07  0.105611E+00   -8.81 -188.81  -74.70 -188.81 -188.81   86.58
Zone t="Diffraction force - beta = 342.000 deg",I=     5,F=POINT
 0.5236  0.131716E+07  0.427971E+06  0.191707E+07  0.250120E+06  0.769790E+06  0.236203E-01   -1.37 -181.37  -85.75 -181.37 -181.37  -84.23
 0.5890  0.155678E+07  0.505829E+06  0.167624E+07  0.309339E+06  0.952047E+06  0.127075E-01   -2.32 -182.32  -83.90 -182.32 -182.32  -75.28
 0.6545  0.181746E+07  0.590529E+06  0.144461E+07  0.374418E+06  0.115234E+07  0.885120E-02   -3.85 -183.85  -81.38 -183.86 -183.86   61.76
 0.7200  0.207373E+07  0.673796E+06  0.122784E+07  0.442281E+06  0.136120E+07  0.437727E-01   -6.04 -186.04  -78.37 -186.06 -186.06   83.09