VARIABLES="w (rad/s)"
"abs(F   1   1)" "angle(F   1   1)"
"abs(F   1   2)" "angle(F   1   2)"
"abs(F   1   3)" "angle(F   1   3)"
"abs(F   1   4)" "angle(F   1   4)"
"abs(F   1   5)" "angle(F   1   5)"
"abs(F   1   6)" "angle(F   1   6)"
Zone t="FKforce - beta =   0.000",I=     5,F=POINT
  0.5236000E+00  0.8151373E+06 -0.1570796E+01  0.1435159E-01  0.2564059E+01  0.2319162E+07 -0.3095627E-08  0.3489624E+00  0.6367622E-01  0.8153716E+05  0.1570796E+01  0.3478897E-01 -0.7709942E-05
  0.5890500E+00  0.9470873E+06 -0.1570796E+01  0.9206992E-01 -0.2693807E+01  0.2138328E+07 -0.1159576E-08  0.5010377E+00  0.7228763E-01  0.1124735E+06  0.1570796E+01  0.3312635E-01 -0.3508658E-04
  0.6545000E+00  0.1086925E+07 -0.1570796E+01  0.1551477E+00  0.2961326E+01  0.1948859E+07  0.9806578E-09  0.2245834E+00 -0.7912582E-01  0.1485401E+06  0.1570796E+01  0.3128242E-01 -0.8193098E-04
  0.7199500E+00  0.1230199E+07 -0.1570796E+01  0.1222485E+00  0.2940978E+01  0.1755518E+07  0.4665378E-08  0.9330819E-01 -0.3855766E-02  0.1873831E+06  0.1570796E+01  0.2922315E-01  0.2631133E-03
  0.7854000E+00  0.1370198E+07 -0.1570796E+01  0.3631374E-01  0.3102084E+01  0.1562552E+07  0.1821229E-08  0.3944204E+00 -0.5137999E-01  0.2254182E+06  0.1570796E+01  0.2699298E-01 -0.3533046E-04
Zone t="FKforce - beta =   9.000",I=     5,F=POINT
  0.5236000E+00  0.8051030E+06 -0.1570796E+01  0.1275157E+06 -0.1570802E+01  0.2319161E+07  0.3884340E-08  0.1275519E+05 -0.1570781E+01  0.8053326E+05  0.1570797E+01  0.3742671E-01  0.6211022E-04
  0.5890500E+00  0.9354274E+06 -0.1570796E+01  0.1481571E+06 -0.1570795E+01  0.2138327E+07 -0.7983235E-08  0.1759469E+05 -0.1570742E+01  0.1110887E+06  0.1570796E+01  0.3878438E-01  0.1782712E-03
  0.6545000E+00  0.1073544E+07 -0.1570796E+01  0.1700325E+06 -0.1570795E+01  0.1948860E+07 -0.1963272E-08  0.2323680E+05 -0.1570789E+01  0.1467116E+06  0.1570796E+01  0.4252315E-01  0.2382888E-04
  0.7199500E+00  0.1215052E+07 -0.1570796E+01  0.1924453E+06 -0.1570796E+01  0.1755517E+07  0.1166889E-07  0.2931321E+05 -0.1570798E+01  0.1850762E+06  0.1570796E+01  0.5103904E-01  0.2627605E-03
  0.7854000E+00  0.1353329E+07 -0.1570796E+01  0.2143461E+06 -0.1570798E+01  0.1562552E+07  0.1199911E-07  0.3526302E+05 -0.1570805E+01  0.2226426E+06  0.1570796E+01  0.6757206E-01  0.3440151E-04
Zone t="FKforce - beta =  18.000",I=     5,F=POINT
  0.5236000E+00  0.7752418E+06 -0.1570796E+01  0.2518914E+06 -0.1570792E+01  0.2319161E+07  0.1608756E-07  0.2519633E+05 -0.1570823E+01  0.7754645E+05  0.1570795E+01  0.3912151E-01 -0.3351870E-04
  0.5890500E+00  0.9007338E+06 -0.1570796E+01  0.2926663E+06 -0.1570794E+01  0.2138328E+07 -0.3997860E-08  0.3475616E+05 -0.1570827E+01  0.1069685E+06  0.1570798E+01  0.4214633E-01  0.5232655E-04
  0.6545000E+00  0.1033727E+07 -0.1570796E+01  0.3358786E+06 -0.1570798E+01  0.1948859E+07  0.1532644E-08  0.4590146E+05 -0.1570810E+01  0.1412703E+06  0.1570796E+01  0.4948044E-01  0.2228529E-04
  0.7199500E+00  0.1169989E+07 -0.1570796E+01  0.3801528E+06 -0.1570794E+01  0.1755518E+07  0.2885712E-08  0.5790461E+05 -0.1570798E+01  0.1782120E+06  0.1570796E+01  0.6456929E-01 -0.3784756E-04
  0.7854000E+00  0.1303135E+07 -0.1570796E+01  0.4234144E+06 -0.1570796E+01  0.1562551E+07 -0.1235433E-07  0.6965814E+05 -0.1570790E+01  0.2143854E+06  0.1570796E+01  0.9271044E-01 -0.2700230E-04
Zone t="FKforce - beta =  27.000",I=     5,F=POINT
  0.5236000E+00  0.7262933E+06 -0.1570796E+01  0.3700648E+06 -0.1570801E+01  0.2319161E+07 -0.8890472E-09  0.3701710E+05 -0.1570810E+01  0.7265004E+05  0.1570798E+01  0.3911829E-01 -0.9142216E-05
  0.5890500E+00  0.8438607E+06 -0.1570796E+01  0.4299689E+06 -0.1570799E+01  0.2138329E+07 -0.5794307E-08  0.5106185E+05 -0.1570788E+01  0.1002145E+06  0.1570796E+01  0.4219270E-01  0.1412677E-04
  0.6545000E+00  0.9684579E+06 -0.1570796E+01  0.4934539E+06 -0.1570798E+01  0.1948859E+07  0.3536337E-07  0.6743594E+05 -0.1570795E+01  0.1323502E+06  0.1570795E+01  0.4949450E-01 -0.4335364E-04
  0.7199500E+00  0.1096114E+07 -0.1570796E+01  0.5584981E+06 -0.1570796E+01  0.1755518E+07  0.1000655E-07  0.8507016E+05 -0.1570799E+01  0.1669595E+06  0.1570796E+01  0.6461418E-01 -0.9040207E-04
  0.7854000E+00  0.1220855E+07 -0.1570797E+01  0.6220566E+06 -0.1570795E+01  0.1562551E+07  0.6258340E-08  0.1023378E+06 -0.1570790E+01  0.2008491E+06  0.1570797E+01  0.9269106E-01 -0.1318245E-04
Zone t="FKforce - beta =  36.000",I=     5,F=POINT
  0.5236000E+00  0.6594610E+06 -0.1570796E+01  0.4791260E+06 -0.1570798E+01  0.2319161E+07 -0.6091742E-08  0.4792632E+05 -0.1570786E+01  0.6596493E+05  0.1570797E+01  0.3745687E-01  0.9468160E-04
  0.5890500E+00  0.7662096E+06 -0.1570796E+01  0.5566842E+06 -0.1570795E+01  0.2138328E+07  0.6298279E-08  0.6611033E+05 -0.1570790E+01  0.9099299E+05  0.1570795E+01  0.3868473E-01 -0.4314183E-04
  0.6545000E+00  0.8793412E+06 -0.1570796E+01  0.6388788E+06 -0.1570796E+01  0.1948859E+07 -0.1552023E-07  0.8730977E+05 -0.1570802E+01  0.1201718E+06  0.1570796E+01  0.4254937E-01  0.4692797E-04
  0.7199500E+00  0.9952514E+06 -0.1570796E+01  0.7230924E+06 -0.1570796E+01  0.1755517E+07  0.3119851E-07  0.1101411E+06 -0.1570794E+01  0.1515963E+06  0.1570797E+01  0.5110151E-01  0.4607268E-04
  0.7854000E+00  0.1108513E+07 -0.1570796E+01  0.8053815E+06 -0.1570796E+01  0.1562552E+07  0.2415814E-07  0.1324976E+06 -0.1570798E+01  0.1823673E+06  0.1570796E+01  0.6762248E-01 -0.9255040E-04
Zone t="FKforce - beta =  45.000",I=     5,F=POINT
  0.5236000E+00  0.5763894E+06 -0.1570796E+01  0.5763891E+06 -0.1570794E+01  0.2319162E+07 -0.2571739E-08  0.5765545E+05 -0.1570798E+01  0.5765538E+05  0.1570796E+01  0.3474510E-01 -0.9435160E-05
  0.5890500E+00  0.6696915E+06 -0.1570796E+01  0.6696916E+06 -0.1570798E+01  0.2138328E+07 -0.1033226E-07  0.7953075E+05 -0.1570797E+01  0.7953081E+05  0.1570795E+01  0.3313816E-01  0.1169136E-03
  0.6545000E+00  0.7685729E+06 -0.1570796E+01  0.7685726E+06 -0.1570797E+01  0.1948860E+07  0.1510623E-07  0.1050339E+06 -0.1570800E+01  0.1050338E+06  0.1570797E+01  0.3126204E-01  0.6482488E-04
  0.7199500E+00  0.8698817E+06 -0.1570796E+01  0.8698819E+06 -0.1570796E+01  0.1755518E+07 -0.8042181E-08  0.1324998E+06 -0.1570804E+01  0.1325000E+06  0.1570796E+01  0.2928001E-01  0.1598007E-03
  0.7854000E+00  0.9688759E+06 -0.1570796E+01  0.9688758E+06 -0.1570797E+01  0.1562552E+07 -0.5757864E-08  0.1593948E+06 -0.1570793E+01  0.1593947E+06  0.1570798E+01  0.2704573E-01  0.1432501E-03
Zone t="FKforce - beta =  54.000",I=     5,F=POINT
  0.5236000E+00  0.4791261E+06 -0.1570796E+01  0.6594607E+06 -0.1570794E+01  0.2319161E+07  0.1082730E-08  0.6596497E+05 -0.1570789E+01  0.4792636E+05  0.1570790E+01  0.3204608E-01 -0.1371726E-03
  0.5890500E+00  0.5566836E+06 -0.1570796E+01  0.7662103E+06 -0.1570795E+01  0.2138328E+07 -0.3407412E-07  0.9099303E+05 -0.1570792E+01  0.6611028E+05  0.1570796E+01  0.2753961E-01 -0.7034053E-05
  0.6545000E+00  0.6388783E+06 -0.1570797E+01  0.8793412E+06 -0.1570795E+01  0.1948859E+07  0.1906606E-07  0.1201718E+06 -0.1570793E+01  0.8730978E+05  0.1570796E+01  0.2004278E-01 -0.2572399E-03
  0.7199500E+00  0.7230926E+06 -0.1570796E+01  0.9952516E+06 -0.1570796E+01  0.1755516E+07 -0.2804879E-07  0.1515963E+06 -0.1570797E+01  0.1101411E+06  0.1570796E+01  0.7418036E-02 -0.9240362E-04
  0.7854000E+00  0.8053816E+06 -0.1570796E+01  0.1108513E+07 -0.1570797E+01  0.1562552E+07 -0.1115747E-07  0.1823672E+06 -0.1570794E+01  0.1324976E+06  0.1570795E+01  0.1351994E-01  0.3141443E+01
Zone t="FKforce - beta =  63.000",I=     5,F=POINT
  0.5236000E+00  0.3700648E+06 -0.1570796E+01  0.7262933E+06 -0.1570797E+01  0.2319161E+07 -0.1263767E-07  0.7265027E+05 -0.1570790E+01  0.3701710E+05  0.1570799E+01  0.3033793E-01 -0.2701450E-04
  0.5890500E+00  0.4299684E+06 -0.1570796E+01  0.8438608E+06 -0.1570797E+01  0.2138330E+07  0.1171884E-07  0.1002148E+06 -0.1570804E+01  0.5106187E+05  0.1570796E+01  0.2401495E-01 -0.1613287E-03
  0.6545000E+00  0.4934540E+06 -0.1570797E+01  0.9684579E+06 -0.1570796E+01  0.1948859E+07 -0.1213833E-07  0.1323505E+06 -0.1570790E+01  0.6743588E+05  0.1570796E+01  0.1303363E-01  0.3315528E-03
  0.7199500E+00  0.5584981E+06 -0.1570797E+01  0.1096114E+07 -0.1570796E+01  0.1755518E+07 -0.2610721E-07  0.1669596E+06 -0.1570796E+01  0.8507006E+05  0.1570796E+01  0.6071450E-02 -0.3140810E+01
  0.7854000E+00  0.6220564E+06 -0.1570797E+01  0.1220856E+07 -0.1570796E+01  0.1562551E+07  0.2078179E-08  0.2008491E+06 -0.1570797E+01  0.1023378E+06  0.1570797E+01  0.3863204E-01  0.3141578E+01
Zone t="FKforce - beta =  72.000",I=     5,F=POINT
  0.5236000E+00  0.2518912E+06 -0.1570796E+01  0.7752422E+06 -0.1570795E+01  0.2319160E+07 -0.3458938E-08  0.7754634E+05 -0.1570806E+01  0.2519631E+05  0.1570796E+01  0.3033698E-01 -0.2357703E-04
  0.5890500E+00  0.2926663E+06 -0.1570797E+01  0.9007332E+06 -0.1570797E+01  0.2138328E+07 -0.1660958E-07  0.1069685E+06 -0.1570798E+01  0.3475620E+05  0.1570799E+01  0.2402055E-01 -0.1550876E-04
  0.6545000E+00  0.3358784E+06 -0.1570796E+01  0.1033727E+07 -0.1570796E+01  0.1948859E+07 -0.1580454E-07  0.1412703E+06 -0.1570791E+01  0.4590150E+05  0.1570797E+01  0.1306224E-01 -0.4574534E-03
  0.7199500E+00  0.3801522E+06 -0.1570797E+01  0.1169990E+07 -0.1570797E+01  0.1755517E+07 -0.3283096E-07  0.1782118E+06 -0.1570796E+01  0.5790461E+05  0.1570797E+01  0.6091249E-02 -0.3139601E+01
  0.7854000E+00  0.4234146E+06 -0.1570796E+01  0.1303135E+07 -0.1570796E+01  0.1562551E+07 -0.5515566E-08  0.2143855E+06 -0.1570800E+01  0.6965814E+05  0.1570793E+01  0.3866506E-01 -0.3141489E+01
Zone t="FKforce - beta =  81.000",I=     5,F=POINT
  0.5236000E+00  0.1275158E+06 -0.1570796E+01  0.8051026E+06 -0.1570795E+01  0.2319161E+07 -0.1056129E-07  0.8053325E+05 -0.1570802E+01  0.1275520E+05  0.1570781E+01  0.3203905E-01  0.7139189E-04
  0.5890500E+00  0.1481572E+06 -0.1570795E+01  0.9354273E+06 -0.1570796E+01  0.2138327E+07 -0.8297102E-08  0.1110888E+06 -0.1570796E+01  0.1759470E+05  0.1570797E+01  0.2746737E-01  0.7337368E-04
  0.6545000E+00  0.1700325E+06 -0.1570797E+01  0.1073544E+07 -0.1570796E+01  0.1948859E+07 -0.2295052E-08  0.1467116E+06 -0.1570797E+01  0.2323686E+05  0.1570797E+01  0.2001977E-01  0.5582417E-04
  0.7199500E+00  0.1924452E+06 -0.1570796E+01  0.1215052E+07 -0.1570798E+01  0.1755517E+07 -0.1021991E-07  0.1850763E+06 -0.1570795E+01  0.2931314E+05  0.1570794E+01  0.7413747E-02 -0.7577462E-03
  0.7854000E+00  0.2143464E+06 -0.1570797E+01  0.1353329E+07 -0.1570796E+01  0.1562551E+07  0.6461580E-08  0.2226428E+06 -0.1570794E+01  0.3526322E+05  0.1570792E+01  0.1352698E-01  0.3141024E+01
Zone t="FKforce - beta =  90.000",I=     5,F=POINT
  0.5236000E+00  0.5563978E-01  0.5524365E+00  0.8151376E+06 -0.1570796E+01  0.2319161E+07  0.1896216E-08  0.8153706E+05 -0.1570795E+01  0.1991255E-01 -0.2086895E+01  0.3479254E-01  0.7762685E-05
  0.5890500E+00  0.2196799E-01  0.1817797E+01  0.9470877E+06 -0.1570796E+01  0.2138328E+07 -0.9988516E-09  0.1124735E+06 -0.1570801E+01  0.4614414E-01  0.3185089E+00  0.3314126E-01  0.3383434E-04
  0.6545000E+00  0.6610455E-01  0.1053082E+01  0.1086925E+07 -0.1570796E+01  0.1948859E+07 -0.9726629E-08  0.1485402E+06 -0.1570799E+01  0.5204651E-02  0.1236233E+01  0.3127861E-01 -0.3037056E-04
  0.7199500E+00  0.3807040E-01  0.1830211E+01  0.1230199E+07 -0.1570796E+01  0.1755518E+07 -0.6148976E-08  0.1873832E+06 -0.1570795E+01  0.2041540E-01 -0.2320802E+01  0.2922523E-01  0.4397656E-04
  0.7854000E+00  0.5198878E-01  0.5979339E+00  0.1370197E+07 -0.1570796E+01  0.1562552E+07  0.1132653E-07  0.2254181E+06 -0.1570798E+01  0.8963433E-01 -0.1448605E+01  0.2698702E-01 -0.7730245E-04
Zone t="FKforce - beta =  99.000",I=     5,F=POINT
  0.5236000E+00  0.1275156E+06  0.1570796E+01  0.8051027E+06 -0.1570798E+01  0.2319160E+07  0.1496618E-07  0.8053325E+05 -0.1570800E+01  0.1275519E+05 -0.1570815E+01  0.3743196E-01  0.2189476E-05
  0.5890500E+00  0.1481571E+06  0.1570797E+01  0.9354271E+06 -0.1570796E+01  0.2138327E+07  0.2762244E-08  0.1110887E+06 -0.1570799E+01  0.1759467E+05 -0.1570796E+01  0.3877056E-01 -0.5092534E-04
  0.6545000E+00  0.1700324E+06  0.1570796E+01  0.1073543E+07 -0.1570796E+01  0.1948860E+07 -0.4858266E-08  0.1467116E+06 -0.1570795E+01  0.2323681E+05 -0.1570801E+01  0.4251039E-01  0.2173285E-04
  0.7199500E+00  0.1924455E+06  0.1570795E+01  0.1215052E+07 -0.1570795E+01  0.1755517E+07  0.1321984E-07  0.1850762E+06 -0.1570796E+01  0.2931321E+05 -0.1570797E+01  0.5103171E-01 -0.5562563E-04
  0.7854000E+00  0.2143460E+06  0.1570797E+01  0.1353329E+07 -0.1570797E+01  0.1562551E+07 -0.5266856E-08  0.2226427E+06 -0.1570796E+01  0.3526314E+05 -0.1570795E+01  0.6758082E-01 -0.2072643E-04
Zone t="FKforce - beta = 108.000",I=     5,F=POINT
  0.5236000E+00  0.2518915E+06  0.1570796E+01  0.7752426E+06 -0.1570798E+01  0.2319162E+07 -0.1682733E-07  0.7754635E+05 -0.1570790E+01  0.2519634E+05 -0.1570792E+01  0.3912377E-01  0.6360567E-04
  0.5890500E+00  0.2926661E+06  0.1570797E+01  0.9007339E+06 -0.1570796E+01  0.2138328E+07  0.1708992E-07  0.1069684E+06 -0.1570802E+01  0.3475619E+05 -0.1570797E+01  0.4215765E-01  0.3676013E-04
  0.6545000E+00  0.3358785E+06  0.1570796E+01  0.1033727E+07 -0.1570797E+01  0.1948859E+07 -0.2091482E-08  0.1412700E+06 -0.1570800E+01  0.4590149E+05 -0.1570794E+01  0.4947281E-01 -0.2409592E-04
  0.7199500E+00  0.3801524E+06  0.1570796E+01  0.1169988E+07 -0.1570796E+01  0.1755517E+07  0.3277120E-07  0.1782118E+06 -0.1570799E+01  0.5790459E+05 -0.1570800E+01  0.6456709E-01  0.8146735E-04
  0.7854000E+00  0.4234141E+06  0.1570796E+01  0.1303137E+07 -0.1570796E+01  0.1562551E+07  0.1464979E-07  0.2143853E+06 -0.1570794E+01  0.6965809E+05 -0.1570795E+01  0.9268665E-01  0.4372923E-04
Zone t="FKforce - beta = 117.000",I=     5,F=POINT
  0.5236000E+00  0.3700648E+06  0.1570797E+01  0.7262930E+06 -0.1570796E+01  0.2319162E+07 -0.1336449E-09  0.7265011E+05 -0.1570788E+01  0.3701714E+05 -0.1570797E+01  0.3911090E-01 -0.1230622E-03
  0.5890500E+00  0.4299688E+06  0.1570796E+01  0.8438603E+06 -0.1570796E+01  0.2138329E+07 -0.1091294E-07  0.1002145E+06 -0.1570794E+01  0.5106185E+05 -0.1570798E+01  0.4218781E-01 -0.1165593E-03
  0.6545000E+00  0.4934535E+06  0.1570797E+01  0.9684574E+06 -0.1570796E+01  0.1948859E+07  0.6294020E-08  0.1323504E+06 -0.1570798E+01  0.6743584E+05 -0.1570797E+01  0.4948163E-01  0.1114238E-03
  0.7199500E+00  0.5584982E+06  0.1570797E+01  0.1096114E+07 -0.1570797E+01  0.1755518E+07  0.2343663E-07  0.1669595E+06 -0.1570796E+01  0.8507021E+05 -0.1570797E+01  0.6459033E-01 -0.1384216E-04
  0.7854000E+00  0.6220567E+06  0.1570796E+01  0.1220854E+07 -0.1570796E+01  0.1562551E+07  0.6506988E-07  0.2008490E+06 -0.1570794E+01  0.1023378E+06 -0.1570795E+01  0.9268218E-01  0.3086918E-04
Zone t="FKforce - beta = 126.000",I=     5,F=POINT
  0.5236000E+00  0.4791262E+06  0.1570796E+01  0.6594608E+06 -0.1570799E+01  0.2319162E+07 -0.3476413E-08  0.6596495E+05 -0.1570801E+01  0.4792634E+05 -0.1570794E+01  0.3744698E-01  0.4775124E-05
  0.5890500E+00  0.5566843E+06  0.1570796E+01  0.7662095E+06 -0.1570797E+01  0.2138329E+07  0.4424225E-07  0.9099291E+05 -0.1570801E+01  0.6611029E+05 -0.1570795E+01  0.3867996E-01  0.1618018E-04
  0.6545000E+00  0.6388791E+06  0.1570796E+01  0.8793416E+06 -0.1570797E+01  0.1948859E+07 -0.3243168E-07  0.1201716E+06 -0.1570798E+01  0.8730991E+05 -0.1570797E+01  0.4254138E-01  0.6094776E-04
  0.7199500E+00  0.7230924E+06  0.1570796E+01  0.9952511E+06 -0.1570797E+01  0.1755517E+07  0.1878430E-07  0.1515962E+06 -0.1570797E+01  0.1101410E+06 -0.1570797E+01  0.5108881E-01  0.1866699E-04
  0.7854000E+00  0.8053822E+06  0.1570796E+01  0.1108513E+07 -0.1570796E+01  0.1562552E+07  0.1135583E-07  0.1823671E+06 -0.1570798E+01  0.1324976E+06 -0.1570797E+01  0.6763726E-01  0.6168678E-05
Zone t="FKforce - beta = 135.000",I=     5,F=POINT
  0.5236000E+00  0.5763894E+06  0.1570796E+01  0.5763892E+06 -0.1570799E+01  0.2319162E+07 -0.3295066E-08  0.5765538E+05 -0.1570783E+01  0.5765546E+05 -0.1570794E+01  0.3474736E-01 -0.8576859E-05
  0.5890500E+00  0.6696921E+06  0.1570796E+01  0.6696919E+06 -0.1570795E+01  0.2138328E+07 -0.1539649E-07  0.7953073E+05 -0.1570796E+01  0.7953080E+05 -0.1570795E+01  0.3314042E-01 -0.9712160E-04
  0.6545000E+00  0.7685725E+06  0.1570796E+01  0.7685726E+06 -0.1570796E+01  0.1948859E+07  0.1417941E-07  0.1050339E+06 -0.1570791E+01  0.1050339E+06 -0.1570795E+01  0.3126144E-01 -0.2669311E-04
  0.7199500E+00  0.8698819E+06  0.1570796E+01  0.8698824E+06 -0.1570796E+01  0.1755518E+07 -0.7852046E-08  0.1325000E+06 -0.1570791E+01  0.1324999E+06 -0.1570795E+01  0.2927983E-01 -0.1353734E-03
  0.7854000E+00  0.9688758E+06  0.1570796E+01  0.9688758E+06 -0.1570796E+01  0.1562552E+07 -0.1239827E-07  0.1593949E+06 -0.1570799E+01  0.1593948E+06 -0.1570797E+01  0.2704442E-01 -0.2225993E-03
Zone t="FKforce - beta = 144.000",I=     5,F=POINT
  0.5236000E+00  0.6594608E+06  0.1570796E+01  0.4791260E+06 -0.1570795E+01  0.2319161E+07  0.1218677E-07  0.4792630E+05 -0.1570810E+01  0.6596494E+05 -0.1570796E+01  0.3205061E-01  0.1320390E-03
  0.5890500E+00  0.7662101E+06  0.1570796E+01  0.5566839E+06 -0.1570797E+01  0.2138328E+07 -0.3143341E-08  0.6611022E+05 -0.1570798E+01  0.9099289E+05 -0.1570794E+01  0.2754486E-01  0.8763844E-04
  0.6545000E+00  0.8793411E+06  0.1570796E+01  0.6388787E+06 -0.1570797E+01  0.1948858E+07  0.4883715E-09  0.8730976E+05 -0.1570798E+01  0.1201716E+06 -0.1570796E+01  0.2007449E-01  0.7274476E-04
  0.7199500E+00  0.9952520E+06  0.1570796E+01  0.7230923E+06 -0.1570797E+01  0.1755516E+07 -0.2340622E-07  0.1101410E+06 -0.1570794E+01  0.1515964E+06 -0.1570797E+01  0.7437647E-02 -0.3526121E-03
  0.7854000E+00  0.1108513E+07  0.1570796E+01  0.8053818E+06 -0.1570797E+01  0.1562551E+07 -0.2957545E-07  0.1324976E+06 -0.1570796E+01  0.1823672E+06 -0.1570795E+01  0.1349646E-01  0.3141273E+01
Zone t="FKforce - beta = 153.000",I=     5,F=POINT
  0.5236000E+00  0.7262929E+06  0.1570796E+01  0.3700647E+06 -0.1570791E+01  0.2319161E+07  0.9433276E-09  0.3701712E+05 -0.1570789E+01  0.7265027E+05 -0.1570794E+01  0.3033602E-01 -0.5992683E-04
  0.5890500E+00  0.8438611E+06  0.1570796E+01  0.4299683E+06 -0.1570793E+01  0.2138329E+07 -0.1731335E-08  0.5106184E+05 -0.1570804E+01  0.1002146E+06 -0.1570796E+01  0.2402365E-01  0.1091676E-03
  0.6545000E+00  0.9684574E+06  0.1570796E+01  0.4934534E+06 -0.1570795E+01  0.1948859E+07  0.1437711E-08  0.6743588E+05 -0.1570799E+01  0.1323505E+06 -0.1570796E+01  0.1303029E-01  0.1120707E-03
  0.7199500E+00  0.1096114E+07  0.1570796E+01  0.5584981E+06 -0.1570797E+01  0.1755518E+07 -0.3518047E-08  0.8507019E+05 -0.1570791E+01  0.1669596E+06 -0.1570798E+01  0.6082179E-02  0.3140872E+01
  0.7854000E+00  0.1220855E+07  0.1570797E+01  0.6220561E+06 -0.1570797E+01  0.1562551E+07 -0.9231877E-08  0.1023379E+06 -0.1570802E+01  0.2008491E+06 -0.1570797E+01  0.3863519E-01  0.3141580E+01
Zone t="FKforce - beta = 162.000",I=     5,F=POINT
  0.5236000E+00  0.7752421E+06  0.1570796E+01  0.2518915E+06 -0.1570800E+01  0.2319162E+07 -0.1574132E-07  0.2519634E+05 -0.1570776E+01  0.7754629E+05 -0.1570798E+01  0.3035176E-01  0.2356555E-04
  0.5890500E+00  0.9007336E+06  0.1570797E+01  0.2926661E+06 -0.1570798E+01  0.2138328E+07  0.3071091E-08  0.3475621E+05 -0.1570775E+01  0.1069685E+06 -0.1570797E+01  0.2400517E-01 -0.2309182E-03
  0.6545000E+00  0.1033727E+07  0.1570796E+01  0.3358783E+06 -0.1570795E+01  0.1948859E+07 -0.3434259E-08  0.4590148E+05 -0.1570793E+01  0.1412701E+06 -0.1570796E+01  0.1306236E-01  0.1756788E-03
  0.7199500E+00  0.1169988E+07  0.1570796E+01  0.3801523E+06 -0.1570796E+01  0.1755518E+07  0.1257066E-08  0.5790460E+05 -0.1570790E+01  0.1782119E+06 -0.1570796E+01  0.6096367E-02  0.3140449E+01
  0.7854000E+00  0.1303136E+07  0.1570796E+01  0.4234142E+06 -0.1570797E+01  0.1562551E+07 -0.2412763E-07  0.6965809E+05 -0.1570805E+01  0.2143853E+06 -0.1570797E+01  0.3865004E-01 -0.3141520E+01
Zone t="FKforce - beta = 171.000",I=     5,F=POINT
  0.5236000E+00  0.8051031E+06  0.1570796E+01  0.1275156E+06 -0.1570792E+01  0.2319160E+07 -0.1208973E-07  0.1275521E+05 -0.1570796E+01  0.8053332E+05 -0.1570795E+01  0.3203321E-01  0.4279643E-04
  0.5890500E+00  0.9354271E+06  0.1570796E+01  0.1481571E+06 -0.1570799E+01  0.2138327E+07  0.4254752E-09  0.1759469E+05 -0.1570842E+01  0.1110887E+06 -0.1570796E+01  0.2747405E-01  0.1214914E-03
  0.6545000E+00  0.1073544E+07  0.1570796E+01  0.1700326E+06 -0.1570797E+01  0.1948860E+07  0.1509155E-08  0.2323681E+05 -0.1570824E+01  0.1467115E+06 -0.1570796E+01  0.2005017E-01 -0.8175132E-04
  0.7199500E+00  0.1215052E+07  0.1570796E+01  0.1924454E+06 -0.1570797E+01  0.1755517E+07  0.6058257E-08  0.2931317E+05 -0.1570799E+01  0.1850762E+06 -0.1570796E+01  0.7400398E-02 -0.1087324E-02
  0.7854000E+00  0.1353330E+07  0.1570796E+01  0.2143460E+06 -0.1570794E+01  0.1562551E+07 -0.5733455E-08  0.3526315E+05 -0.1570794E+01  0.2226428E+06 -0.1570796E+01  0.1355934E-01 -0.3141566E+01
Zone t="FKforce - beta = 180.000",I=     5,F=POINT
  0.5236000E+00  0.8151373E+06  0.1570796E+01  0.7131062E-01  0.1740219E+01  0.2319162E+07 -0.2730468E-09  0.4109435E+00 -0.3027635E-01  0.8153709E+05 -0.1570796E+01  0.3477371E-01 -0.4713699E-04
  0.5890500E+00  0.9470872E+06  0.1570796E+01  0.1392722E+00  0.2075687E+01  0.2138328E+07 -0.2493979E-08  0.3749460E+00 -0.3401090E-01  0.1124734E+06 -0.1570796E+01  0.3313017E-01  0.9265389E-04
  0.6545000E+00  0.1086925E+07  0.1570796E+01  0.1945415E+00  0.2472817E+01  0.1948859E+07 -0.9806578E-09  0.2249259E+00  0.9643918E-01  0.1485402E+06 -0.1570796E+01  0.3129005E-01  0.2095398E-04
  0.7199500E+00  0.1230199E+07  0.1570796E+01  0.1620087E+00  0.2269207E+01  0.1755518E+07 -0.2151245E-09  0.2188406E+00 -0.6981171E-01  0.1873831E+06 -0.1570796E+01  0.2921933E-01 -0.6731685E-04
  0.7854000E+00  0.1370198E+07  0.1570796E+01  0.8838832E-01  0.1993823E+01  0.1562552E+07 -0.6821064E-08  0.2695567E+00 -0.6982348E-01  0.2254182E+06 -0.1570796E+01  0.2699298E-01  0.3533046E-04
Zone t="FKforce - beta = 189.000",I=     5,F=POINT
  0.5236000E+00  0.8051029E+06  0.1570796E+01  0.1275158E+06  0.1570802E+01  0.2319161E+07 -0.7854212E-09  0.1275520E+05  0.1570772E+01  0.8053327E+05 -0.1570796E+01  0.3744674E-01 -0.2865092E-04
  0.5890500E+00  0.9354273E+06  0.1570796E+01  0.1481573E+06  0.1570795E+01  0.2138327E+07  0.3273573E-08  0.1759472E+05  0.1570743E+01  0.1110886E+06 -0.1570796E+01  0.3879583E-01 -0.2734734E-03
  0.6545000E+00  0.1073544E+07  0.1570796E+01  0.1700326E+06  0.1570795E+01  0.1948860E+07 -0.2037653E-08  0.2323688E+05  0.1570787E+01  0.1467115E+06 -0.1570797E+01  0.4253852E-01  0.1036882E-03
  0.7199500E+00  0.1215052E+07  0.1570796E+01  0.1924454E+06  0.1570796E+01  0.1755517E+07 -0.9190606E-08  0.2931320E+05  0.1570797E+01  0.1850761E+06 -0.1570796E+01  0.5101681E-01  0.1168333E-05
  0.7854000E+00  0.1353328E+07  0.1570796E+01  0.2143463E+06  0.1570797E+01  0.1562552E+07 -0.6569607E-08  0.3526323E+05  0.1570800E+01  0.2226424E+06 -0.1570796E+01  0.6758112E-01 -0.4233465E-04
Zone t="FKforce - beta = 198.000",I=     5,F=POINT
  0.5236000E+00  0.7752418E+06  0.1570796E+01  0.2518914E+06  0.1570792E+01  0.2319161E+07 -0.1861407E-07  0.2519635E+05  0.1570823E+01  0.7754641E+05 -0.1570795E+01  0.3912151E-01  0.5789594E-04
  0.5890500E+00  0.9007338E+06  0.1570796E+01  0.2926663E+06  0.1570794E+01  0.2138328E+07  0.3997860E-08  0.3475619E+05  0.1570827E+01  0.1069686E+06 -0.1570798E+01  0.4214633E-01 -0.2969885E-04
  0.6545000E+00  0.1033727E+07  0.1570796E+01  0.3358785E+06  0.1570798E+01  0.1948859E+07 -0.1532644E-08  0.4590149E+05  0.1570810E+01  0.1412703E+06 -0.1570796E+01  0.4948044E-01  0.1626224E-04
  0.7199500E+00  0.1169989E+07  0.1570796E+01  0.3801526E+06  0.1570794E+01  0.1755518E+07  0.3789670E-08  0.5790462E+05  0.1570801E+01  0.1782120E+06 -0.1570796E+01  0.6456929E-01  0.2307778E-04
  0.7854000E+00  0.1303135E+07  0.1570796E+01  0.4234144E+06  0.1570796E+01  0.1562551E+07  0.8604453E-08  0.6965816E+05  0.1570790E+01  0.2143854E+06 -0.1570796E+01  0.9271044E-01  0.2700230E-04
Zone t="FKforce - beta = 207.000",I=     5,F=POINT
  0.5236000E+00  0.7262933E+06  0.1570796E+01  0.3700649E+06  0.1570801E+01  0.2319161E+07  0.4257722E-08  0.3701707E+05  0.1570810E+01  0.7265005E+05 -0.1570798E+01  0.3911829E-01 -0.1523703E-04
  0.5890500E+00  0.8438607E+06  0.1570796E+01  0.4299690E+06  0.1570799E+01  0.2138329E+07  0.9447860E-08  0.5106186E+05  0.1570788E+01  0.1002145E+06 -0.1570796E+01  0.4219270E-01  0.7628454E-04
  0.6545000E+00  0.9684579E+06  0.1570796E+01  0.4934539E+06  0.1570798E+01  0.1948859E+07 -0.3335899E-07  0.6743593E+05  0.1570795E+01  0.1323503E+06 -0.1570795E+01  0.4949450E-01 -0.9152437E-04
  0.7199500E+00  0.1096114E+07  0.1570796E+01  0.5584981E+06  0.1570796E+01  0.1755518E+07 -0.5556297E-08  0.8507014E+05  0.1570799E+01  0.1669596E+06 -0.1570796E+01  0.6460655E-01  0.9041274E-04
  0.7854000E+00  0.1220855E+07  0.1570797E+01  0.6220566E+06  0.1570795E+01  0.1562551E+07 -0.6258340E-08  0.1023378E+06  0.1570791E+01  0.2008491E+06 -0.1570797E+01  0.9266818E-01  0.1318571E-04
Zone t="FKforce - beta = 216.000",I=     5,F=POINT
  0.5236000E+00  0.6594610E+06  0.1570796E+01  0.4791261E+06  0.1570798E+01  0.2319161E+07  0.1216128E-07  0.4792635E+05  0.1570786E+01  0.6596488E+05 -0.1570797E+01  0.3744161E-01 -0.4298227E-04
  0.5890500E+00  0.7662095E+06  0.1570796E+01  0.5566842E+06  0.1570795E+01  0.2138328E+07 -0.4575864E-09  0.6611027E+05  0.1570792E+01  0.9099290E+05 -0.1570795E+01  0.3868473E-01 -0.2311170E-05
  0.6545000E+00  0.8793411E+06  0.1570796E+01  0.6388789E+06  0.1570796E+01  0.1948859E+07  0.2481397E-07  0.8730974E+05  0.1570801E+01  0.1201716E+06 -0.1570796E+01  0.4253471E-01 -0.3923690E-04
  0.7199500E+00  0.9952514E+06  0.1570796E+01  0.7230924E+06  0.1570796E+01  0.1755517E+07 -0.1331926E-07  0.1101411E+06  0.1570795E+01  0.1515962E+06 -0.1570797E+01  0.5110914E-01 -0.2390757E-04
  0.7854000E+00  0.1108512E+07  0.1570796E+01  0.8053817E+06  0.1570796E+01  0.1562552E+07 -0.2804473E-07  0.1324976E+06  0.1570799E+01  0.1823672E+06 -0.1570796E+01  0.6765682E-01  0.1048372E-03
Zone t="FKforce - beta = 225.000",I=     5,F=POINT
  0.5236000E+00  0.5763895E+06  0.1570796E+01  0.5763891E+06  0.1570794E+01  0.2319162E+07 -0.8434022E-09  0.5765544E+05  0.1570798E+01  0.5765544E+05 -0.1570796E+01  0.3475654E-01  0.9946529E-04
  0.5890500E+00  0.6696915E+06  0.1570796E+01  0.6696916E+06  0.1570798E+01  0.2138328E+07  0.1841674E-07  0.7953070E+05  0.1570797E+01  0.7953086E+05 -0.1570795E+01  0.3312504E-01 -0.4498458E-04
  0.6545000E+00  0.7685732E+06  0.1570796E+01  0.7685726E+06  0.1570797E+01  0.1948860E+07 -0.7829598E-08  0.1050339E+06  0.1570800E+01  0.1050339E+06 -0.1570797E+01  0.3124678E-01  0.1812168E-04
  0.7199500E+00  0.8698818E+06  0.1570796E+01  0.8698818E+06  0.1570796E+01  0.1755518E+07  0.2656462E-08  0.1324999E+06  0.1570804E+01  0.1325000E+06 -0.1570796E+01  0.2928889E-01 -0.1058231E-03
  0.7854000E+00  0.9688759E+06  0.1570796E+01  0.9688758E+06  0.1570797E+01  0.1562552E+07  0.5063308E-08  0.1593948E+06  0.1570793E+01  0.1593948E+06 -0.1570798E+01  0.2702284E-01  0.1378571E-03
Zone t="FKforce - beta = 234.000",I=     5,F=POINT
  0.5236000E+00  0.4791259E+06  0.1570796E+01  0.6594607E+06  0.1570794E+01  0.2319161E+07 -0.1012412E-08  0.6596505E+05  0.1570789E+01  0.4792632E+05 -0.1570790E+01  0.3204608E-01  0.2134312E-03
  0.5890500E+00  0.5566832E+06  0.1570796E+01  0.7662106E+06  0.1570795E+01  0.2138328E+07  0.3923870E-07  0.9099295E+05  0.1570791E+01  0.6611025E+05 -0.1570796E+01  0.2752817E-01  0.9960030E-04
  0.6545000E+00  0.6388782E+06  0.1570797E+01  0.8793412E+06  0.1570795E+01  0.1948859E+07 -0.1631591E-07  0.1201717E+06  0.1570794E+01  0.8730975E+05 -0.1570796E+01  0.2002752E-01  0.9077219E-04
  0.7199500E+00  0.7230920E+06  0.1570797E+01  0.9952517E+06  0.1570796E+01  0.1755516E+07  0.2349151E-07  0.1515963E+06  0.1570795E+01  0.1101410E+06 -0.1570796E+01  0.7423288E-02  0.1288721E-02
  0.7854000E+00  0.8053811E+06  0.1570796E+01  0.1108513E+07  0.1570797E+01  0.1562552E+07  0.7059092E-08  0.1823672E+06  0.1570794E+01  0.1324977E+06 -0.1570795E+01  0.1351231E-01  0.3141542E+01
Zone t="FKforce - beta = 243.000",I=     5,F=POINT
  0.5236000E+00  0.3700647E+06  0.1570796E+01  0.7262935E+06  0.1570797E+01  0.2319161E+07  0.1790801E-07  0.7265020E+05  0.1570790E+01  0.3701716E+05 -0.1570799E+01  0.3032649E-01  0.6289382E-04
  0.5890500E+00  0.4299684E+06  0.1570796E+01  0.8438609E+06  0.1570797E+01  0.2138330E+07 -0.1525956E-07  0.1002148E+06  0.1570803E+01  0.5106191E+05 -0.1570796E+01  0.2401495E-01  0.5956754E-04
  0.6545000E+00  0.4934537E+06  0.1570797E+01  0.9684579E+06  0.1570796E+01  0.1948859E+07  0.3263965E-09  0.1323505E+06  0.1570791E+01  0.6743591E+05 -0.1570795E+01  0.1304889E-01 -0.2797775E-03
  0.7199500E+00  0.5584978E+06  0.1570797E+01  0.1096114E+07  0.1570796E+01  0.1755518E+07  0.3498055E-07  0.1669595E+06  0.1570796E+01  0.8507023E+05 -0.1570796E+01  0.6094337E-02  0.3141514E+01
  0.7854000E+00  0.6220560E+06  0.1570797E+01  0.1220856E+07  0.1570796E+01  0.1562551E+07  0.1286152E-07  0.2008491E+06  0.1570796E+01  0.1023380E+06 -0.1570798E+01  0.3866565E-01  0.3141476E+01
Zone t="FKforce - beta = 252.000",I=     5,F=POINT
  0.5236000E+00  0.2518910E+06  0.1570796E+01  0.7752423E+06  0.1570795E+01  0.2319160E+07 -0.4052116E-08  0.7754636E+05  0.1570804E+01  0.2519632E+05 -0.1570791E+01  0.3033698E-01  0.1159204E-03
  0.5890500E+00  0.2926661E+06  0.1570797E+01  0.9007334E+06  0.1570797E+01  0.2138328E+07  0.1604920E-07  0.1069685E+06  0.1570798E+01  0.3475617E+05 -0.1570797E+01  0.2402055E-01 -0.6575715E-04
  0.6545000E+00  0.3358781E+06  0.1570796E+01  0.1033727E+07  0.1570796E+01  0.1948859E+07  0.2018349E-07  0.1412701E+06  0.1570791E+01  0.4590147E+05 -0.1570797E+01  0.1306224E-01  0.0000000E+00
  0.7199500E+00  0.3801518E+06  0.1570797E+01  0.1169989E+07  0.1570797E+01  0.1755517E+07  0.1264020E-07  0.1782118E+06  0.1570796E+01  0.5790450E+05 -0.1570795E+01  0.6096125E-02  0.3141385E+01