 VARIABLES="Time (s)"
"AddedMass    1" "IRF    1"
"AddedMass    2" "IRF    2"
"AddedMass    3" "IRF    3"
"AddedMass    4" "IRF    4"
"AddedMass    5" "IRF    5"
"AddedMass    6" "IRF    6"
Zone t="DoF    1",I=   100,F=POINT
  0.0000000E+00  0.2386516E+07  0.5311262E+05  0.3174915E+00  0.1385839E-01  0.7309030E+00  0.1057880E+00 -0.8052241E+00 -0.3097031E-01 -0.2605531E+07 -0.3454771E+05 -0.4524182E-04  0.1276691E-05
  0.1000000E+00  0.2386516E+07  0.5297890E+05  0.3174915E+00  0.1382436E-01  0.7309030E+00  0.1055420E+00 -0.8052241E+00 -0.3090415E-01 -0.2605531E+07 -0.3446018E+05 -0.4524182E-04  0.1273465E-05
  0.2000000E+00  0.2386516E+07  0.5257844E+05  0.3174915E+00  0.1372245E-01  0.7309030E+00  0.1048051E+00 -0.8052241E+00 -0.3070599E-01 -0.2605531E+07 -0.3419804E+05 -0.4524182E-04  0.1263805E-05
  0.3000000E+00  0.2386516E+07  0.5191333E+05  0.3174915E+00  0.1355318E-01  0.7309030E+00  0.1035809E+00 -0.8052241E+00 -0.3037670E-01 -0.2605531E+07 -0.3376267E+05 -0.4524182E-04  0.1247760E-05
  0.4000000E+00  0.2386516E+07  0.5098702E+05  0.3174915E+00  0.1331741E-01  0.7309030E+00  0.1018751E+00 -0.8052241E+00 -0.2991778E-01 -0.2605531E+07 -0.3315634E+05 -0.4524182E-04  0.1225412E-05
  0.5000000E+00  0.2386516E+07  0.4980437E+05  0.3174915E+00  0.1301635E-01  0.7309030E+00  0.9969585E-01 -0.8052241E+00 -0.2933128E-01 -0.2605531E+07 -0.3238226E+05 -0.4524182E-04  0.1196876E-05
  0.6000000E+00  0.2386516E+07  0.4837152E+05  0.3174915E+00  0.1265153E-01  0.7309030E+00  0.9705357E-01 -0.8052241E+00 -0.2861982E-01 -0.2605531E+07 -0.3144445E+05 -0.4524182E-04  0.1162297E-05
  0.7000000E+00  0.2386516E+07  0.4669596E+05  0.3174915E+00  0.1222483E-01  0.7309030E+00  0.9396078E-01 -0.8052241E+00 -0.2778662E-01 -0.2605531E+07 -0.3034783E+05 -0.4524182E-04  0.1121854E-05
  0.8000000E+00  0.2386516E+07  0.4478640E+05  0.3174915E+00  0.1173841E-01  0.7309030E+00  0.9043217E-01 -0.8052241E+00 -0.2683540E-01 -0.2605531E+07 -0.2909816E+05 -0.4524182E-04  0.1075752E-05
  0.9000000E+00  0.2386516E+07  0.4265280E+05  0.3174915E+00  0.1119476E-01  0.7309030E+00  0.8648455E-01 -0.8052241E+00 -0.2577042E-01 -0.2605531E+07 -0.2770197E+05 -0.4524182E-04  0.1024229E-05
  0.1000000E+01  0.2386516E+07  0.4030627E+05  0.3174915E+00  0.1059666E-01  0.7309030E+00  0.8213665E-01 -0.8052241E+00 -0.2459647E-01 -0.2605531E+07 -0.2616656E+05 -0.4524182E-04  0.9675480E-06
  0.1100000E+01  0.2386516E+07  0.3775900E+05  0.3174915E+00  0.9947145E-02  0.7309030E+00  0.7740910E-01 -0.8052241E+00 -0.2331879E-01 -0.2605531E+07 -0.2449998E+05 -0.4524182E-04  0.9059986E-06
  0.1200000E+01  0.2386516E+07  0.3502425E+05  0.3174915E+00  0.9249535E-02  0.7309030E+00  0.7232438E-01 -0.8052241E+00 -0.2194312E-01 -0.2605531E+07 -0.2271094E+05 -0.4524182E-04  0.8398964E-06
  0.1300000E+01  0.2386516E+07  0.3211624E+05  0.3174915E+00  0.8507377E-02  0.7309030E+00  0.6690656E-01 -0.8052241E+00 -0.2047559E-01 -0.2605531E+07 -0.2080877E+05 -0.4524182E-04  0.7695794E-06
  0.1400000E+01  0.2386516E+07  0.2905008E+05  0.3174915E+00  0.7724449E-02  0.7309030E+00  0.6118139E-01 -0.8052241E+00 -0.1892277E-01 -0.2605531E+07 -0.1880341E+05 -0.4524182E-04  0.6954071E-06
  0.1500000E+01  0.2386516E+07  0.2584166E+05  0.3174915E+00  0.6904729E-02  0.7309030E+00  0.5517596E-01 -0.8052241E+00 -0.1729159E-01 -0.2605531E+07 -0.1670532E+05 -0.4524182E-04  0.6177588E-06
  0.1600000E+01  0.2386516E+07  0.2250764E+05  0.3174915E+00  0.6052379E-02  0.7309030E+00  0.4891872E-01 -0.8052241E+00 -0.1558932E-01 -0.2605531E+07 -0.1452545E+05 -0.4524182E-04  0.5370312E-06
  0.1700000E+01  0.2386516E+07  0.1906528E+05  0.3174915E+00  0.5171723E-02  0.7309030E+00  0.4243931E-01 -0.8052241E+00 -0.1382354E-01 -0.2605531E+07 -0.1227515E+05 -0.4524182E-04  0.4536369E-06
  0.1800000E+01  0.2386516E+07  0.1553240E+05  0.3174915E+00  0.4267224E-02  0.7309030E+00  0.3576834E-01 -0.8052241E+00 -0.1200211E-01 -0.2605531E+07 -0.9966115E+04 -0.4524182E-04  0.3680015E-06
  0.1900000E+01  0.2386516E+07  0.1192726E+05  0.3174915E+00  0.3343459E-02  0.7309030E+00  0.2893736E-01 -0.8052241E+00 -0.1013313E-01 -0.2605531E+07 -0.7610363E+04 -0.4524182E-04  0.2805623E-06
  0.2000000E+01  0.2386516E+07  0.8268492E+04  0.3174915E+00  0.2405095E-02  0.7309030E+00  0.2197859E-01 -0.8052241E+00 -0.8224880E-02 -0.2605531E+07 -0.5220112E+04 -0.4524182E-04  0.1917649E-06
  0.2100000E+01  0.2386516E+07  0.4574940E+04  0.3174915E+00  0.1456867E-02  0.7309030E+00  0.1492486E-01 -0.8052241E+00 -0.6285811E-02 -0.2605531E+07 -0.2807759E+04 -0.4524182E-04  0.1020621E-06
  0.2200000E+01  0.2386516E+07  0.8656437E+03  0.3174915E+00  0.5035540E-03  0.7309030E+00  0.7809434E-02 -0.8052241E+00 -0.4324503E-02 -0.2605531E+07 -0.3857995E+03 -0.4524182E-04  0.1191117E-07
  0.2300000E+01  0.2386516E+07 -0.2840337E+04  0.3174915E+00 -0.4500511E-03  0.7309030E+00  0.6657709E-03 -0.8052241E+00 -0.2349607E-02 -0.2605531E+07  0.2033249E+04 -0.4524182E-04 -0.7822913E-07
  0.2400000E+01  0.2386516E+07 -0.6523996E+04  0.3174915E+00 -0.1399166E-02  0.7309030E+00 -0.6472565E-02 -0.8052241E+00 -0.3698144E-03 -0.2605531E+07  0.4436914E+04 -0.4524182E-04 -0.1679006E-06
  0.2500000E+01  0.2386516E+07 -0.1016644E+05  0.3174915E+00 -0.2339033E-02  0.7309030E+00 -0.1357204E-01 -0.8052241E+00  0.1606169E-02 -0.2605531E+07  0.6812799E+04 -0.4524182E-04 -0.2566469E-06
  0.2600000E+01  0.2386516E+07 -0.1374909E+05  0.3174915E+00 -0.3264961E-02  0.7309030E+00 -0.2059940E-01 -0.8052241E+00  0.3569690E-02 -0.2605531E+07  0.9148704E+04 -0.4524182E-04 -0.3440180E-06
  0.2700000E+01  0.2386516E+07 -0.1725364E+05  0.3174915E+00 -0.4172334E-02  0.7309030E+00 -0.2752175E-01 -0.8052241E+00  0.5512158E-02 -0.2605531E+07  0.1143264E+05 -0.4524182E-04 -0.4295702E-06
  0.2800000E+01  0.2386516E+07 -0.2066229E+05  0.3174915E+00 -0.5056646E-02  0.7309030E+00 -0.3430676E-01 -0.8052241E+00  0.7425114E-02 -0.2605531E+07  0.1365293E+05 -0.4524182E-04 -0.5128704E-06
  0.2900000E+01  0.2386516E+07 -0.2395777E+05  0.3174915E+00 -0.5913519E-02  0.7309030E+00 -0.4092281E-01 -0.8052241E+00  0.9300252E-02 -0.2605531E+07  0.1579826E+05 -0.4524182E-04 -0.5934969E-06
  0.3000000E+01  0.2386516E+07 -0.2712340E+05  0.3174915E+00 -0.6738727E-02  0.7309030E+00 -0.4733912E-01 -0.8052241E+00  0.1112945E-01 -0.2605531E+07  0.1785772E+05 -0.4524182E-04 -0.6710424E-06
  0.3100000E+01  0.2386516E+07 -0.3014327E+05  0.3174915E+00 -0.7528217E-02  0.7309030E+00 -0.5352594E-01 -0.8052241E+00  0.1290483E-01 -0.2605531E+07  0.1982087E+05 -0.4524182E-04 -0.7451156E-06
  0.3200000E+01  0.2386516E+07 -0.3300223E+05  0.3174915E+00 -0.8278125E-02  0.7309030E+00 -0.5945460E-01 -0.8052241E+00  0.1461876E-01 -0.2605531E+07  0.2167781E+05 -0.4524182E-04 -0.8153437E-06
  0.3300000E+01  0.2386516E+07 -0.3568603E+05  0.3174915E+00 -0.8984808E-02  0.7309030E+00 -0.6509776E-01 -0.8052241E+00  0.1626394E-01 -0.2605531E+07  0.2341923E+05 -0.4524182E-04 -0.8813734E-06
  0.3400000E+01  0.2386516E+07 -0.3818138E+05  0.3174915E+00 -0.9644857E-02  0.7309030E+00 -0.7042950E-01 -0.8052241E+00  0.1783337E-01 -0.2605531E+07  0.2503646E+05 -0.4524182E-04 -0.9428744E-06
  0.3500000E+01  0.2386516E+07 -0.4047596E+05  0.3174915E+00 -0.1025510E-01  0.7309030E+00 -0.7542539E-01 -0.8052241E+00  0.1932044E-01 -0.2605531E+07  0.2652145E+05 -0.4524182E-04 -0.9995384E-06
  0.3600000E+01  0.2386516E+07 -0.4255861E+05  0.3174915E+00 -0.1081264E-01  0.7309030E+00 -0.8006267E-01 -0.8052241E+00  0.2071892E-01 -0.2605531E+07  0.2786692E+05 -0.4524182E-04 -0.1051084E-05
  0.3700000E+01  0.2386516E+07 -0.4441923E+05  0.3174915E+00 -0.1131486E-01  0.7309030E+00 -0.8432028E-01 -0.8052241E+00  0.2202299E-01 -0.2605531E+07  0.2906632E+05 -0.4524182E-04 -0.1097255E-05
  0.3800000E+01  0.2386516E+07 -0.4604897E+05  0.3174915E+00 -0.1175942E-01  0.7309030E+00 -0.8817910E-01 -0.8052241E+00  0.2322731E-01 -0.2605531E+07  0.3011390E+05 -0.4524182E-04 -0.1137824E-05
  0.3900000E+01  0.2386516E+07 -0.4744019E+05  0.3174915E+00 -0.1214432E-01  0.7309030E+00 -0.9162185E-01 -0.8052241E+00  0.2432698E-01 -0.2605531E+07  0.3100471E+05 -0.4524182E-04 -0.1172591E-05
  0.4000000E+01  0.2386516E+07 -0.4858652E+05  0.3174915E+00 -0.1246782E-01  0.7309030E+00 -0.9463332E-01 -0.8052241E+00  0.2531760E-01 -0.2605531E+07  0.3173464E+05 -0.4524182E-04 -0.1201389E-05
  0.4100000E+01  0.2386516E+07 -0.4948290E+05  0.3174915E+00 -0.1272855E-01  0.7309030E+00 -0.9720036E-01 -0.8052241E+00  0.2619529E-01 -0.2605531E+07  0.3230046E+05 -0.4524182E-04 -0.1224079E-05
  0.4200000E+01  0.2386516E+07 -0.5012560E+05  0.3174915E+00 -0.1292544E-01  0.7309030E+00 -0.9931197E-01 -0.8052241E+00  0.2695667E-01 -0.2605531E+07  0.3269979E+05 -0.4524182E-04 -0.1240554E-05
  0.4300000E+01  0.2386516E+07 -0.5051220E+05  0.3174915E+00 -0.1305775E-01  0.7309030E+00 -0.1009593E+00 -0.8052241E+00  0.2759892E-01 -0.2605531E+07  0.3293113E+05 -0.4524182E-04 -0.1250740E-05
  0.4400000E+01  0.2386516E+07 -0.5064167E+05  0.3174915E+00 -0.1312510E-01  0.7309030E+00 -0.1021358E+00 -0.8052241E+00  0.2811975E-01 -0.2605531E+07  0.3299389E+05 -0.4524182E-04 -0.1254595E-05
  0.4500000E+01  0.2386516E+07 -0.5051430E+05  0.3174915E+00 -0.1312741E-01  0.7309030E+00 -0.1028371E+00 -0.8052241E+00  0.2851745E-01 -0.2605531E+07  0.3288837E+05 -0.4524182E-04 -0.1252109E-05
  0.4600000E+01  0.2386516E+07 -0.5013175E+05  0.3174915E+00 -0.1306497E-01  0.7309030E+00 -0.1030611E+00 -0.8052241E+00  0.2879087E-01 -0.2605531E+07  0.3261573E+05 -0.4524182E-04 -0.1243304E-05
  0.4700000E+01  0.2386516E+07 -0.4949697E+05  0.3174915E+00 -0.1293837E-01  0.7309030E+00 -0.1028081E+00 -0.8052241E+00  0.2893941E-01 -0.2605531E+07  0.3217802E+05 -0.4524182E-04 -0.1228236E-05
  0.4800000E+01  0.2386516E+07 -0.4861429E+05  0.3174915E+00 -0.1274855E-01  0.7309030E+00 -0.1020804E+00 -0.8052241E+00  0.2896305E-01 -0.2605531E+07  0.3157817E+05 -0.4524182E-04 -0.1206993E-05
  0.4900000E+01  0.2386516E+07 -0.4748925E+05  0.3174915E+00 -0.1249675E-01  0.7309030E+00 -0.1008827E+00 -0.8052241E+00  0.2886232E-01 -0.2605531E+07  0.3081993E+05 -0.4524182E-04 -0.1179692E-05
  0.5000000E+01  0.2386516E+07 -0.4612871E+05  0.3174915E+00 -0.1218455E-01  0.7309030E+00 -0.9922197E-01 -0.8052241E+00  0.2863833E-01 -0.2605531E+07  0.2990788E+05 -0.4524182E-04 -0.1146482E-05
  0.5100000E+01  0.2386516E+07 -0.4454067E+05  0.3174915E+00 -0.1181382E-01  0.7309030E+00 -0.9710728E-01 -0.8052241E+00  0.2829273E-01 -0.2605531E+07  0.2884739E+05 -0.4524182E-04 -0.1107545E-05
  0.5200000E+01  0.2386516E+07 -0.4273434E+05  0.3174915E+00 -0.1138671E-01  0.7309030E+00 -0.9454981E-01 -0.8052241E+00  0.2782772E-01 -0.2605531E+07  0.2764461E+05 -0.4524182E-04 -0.1063087E-05
  0.5300000E+01  0.2386516E+07 -0.4072005E+05  0.3174915E+00 -0.1090568E-01  0.7309030E+00 -0.9156283E-01 -0.8052241E+00  0.2724600E-01 -0.2605531E+07  0.2630639E+05 -0.4524182E-04 -0.1013345E-05
  0.5400000E+01  0.2386516E+07 -0.3850913E+05  0.3174915E+00 -0.1037343E-01  0.7309030E+00 -0.8816160E-01 -0.8052241E+00  0.2655083E-01 -0.2605531E+07  0.2484029E+05 -0.4524182E-04 -0.9585827E-06
  0.5500000E+01  0.2386516E+07 -0.3611393E+05  0.3174915E+00 -0.9792912E-02  0.7309030E+00 -0.8436329E-01 -0.8052241E+00  0.2574592E-01 -0.2605531E+07  0.2325450E+05 -0.4524182E-04 -0.8990879E-06
  0.5600000E+01  0.2386516E+07 -0.3354770E+05  0.3174915E+00 -0.9167328E-02  0.7309030E+00 -0.8018687E-01 -0.8052241E+00  0.2483548E-01 -0.2605531E+07  0.2155782E+05 -0.4524182E-04 -0.8351726E-06
  0.5700000E+01  0.2386516E+07 -0.3082453E+05  0.3174915E+00 -0.8500087E-02  0.7309030E+00 -0.7565307E-01 -0.8052241E+00  0.2382419E-01 -0.2605531E+07  0.1975958E+05 -0.4524182E-04 -0.7671705E-06
  0.5800000E+01  0.2386516E+07 -0.2795932E+05  0.3174915E+00 -0.7794801E-02  0.7309030E+00 -0.7078426E-01 -0.8052241E+00  0.2271712E-01 -0.2605531E+07  0.1786964E+05 -0.4524182E-04 -0.6954365E-06
  0.5900000E+01  0.2386516E+07 -0.2496759E+05  0.3174915E+00 -0.7055251E-02  0.7309030E+00 -0.6560425E-01 -0.8052241E+00  0.2151978E-01 -0.2605531E+07  0.1589827E+05 -0.4524182E-04 -0.6203427E-06
  0.6000000E+01  0.2386516E+07 -0.2186548E+05  0.3174915E+00 -0.6285381E-02  0.7309030E+00 -0.6013828E-01 -0.8052241E+00  0.2023803E-01 -0.2605531E+07  0.1385613E+05 -0.4524182E-04 -0.5422784E-06
  0.6100000E+01  0.2386516E+07 -0.1866963E+05  0.3174915E+00 -0.5489271E-02  0.7309030E+00 -0.5441286E-01 -0.8052241E+00  0.1887812E-01 -0.2605531E+07  0.1175423E+05 -0.4524182E-04 -0.4616471E-06
  0.6200000E+01  0.2386516E+07 -0.1539708E+05  0.3174915E+00 -0.4671105E-02  0.7309030E+00 -0.4845558E-01 -0.8052241E+00  0.1744654E-01 -0.2605531E+07  0.9603807E+04 -0.4524182E-04 -0.3788643E-06
  0.6300000E+01  0.2386516E+07 -0.1206526E+05  0.3174915E+00 -0.3835175E-02  0.7309030E+00 -0.4229515E-01 -0.8052241E+00  0.1595016E-01 -0.2605531E+07  0.7416350E+04 -0.4524182E-04 -0.2943569E-06
  0.6400000E+01  0.2386516E+07 -0.8691733E+04  0.3174915E+00 -0.2985823E-02  0.7309030E+00 -0.3596095E-01 -0.8052241E+00  0.1439602E-01 -0.2605531E+07  0.5203442E+04 -0.4524182E-04 -0.2085574E-06
  0.6500000E+01  0.2386516E+07 -0.5294267E+04  0.3174915E+00 -0.2127449E-02  0.7309030E+00 -0.2948324E-01 -0.8052241E+00  0.1279143E-01 -0.2605531E+07  0.2976786E+04 -0.4524182E-04 -0.1219066E-06
  0.6600000E+01  0.2386516E+07 -0.1890624E+04  0.3174915E+00 -0.1264465E-02  0.7309030E+00 -0.2289272E-01 -0.8052241E+00  0.1114385E-01 -0.2605531E+07  0.7480705E+03 -0.4524182E-04 -0.3484664E-07
  0.6700000E+01  0.2386516E+07  0.1501505E+04  0.3174915E+00 -0.4012763E-03  0.7309030E+00 -0.1622048E-01 -0.8052241E+00  0.9460884E-02 -0.2605531E+07 -0.1471067E+04 -0.4524182E-04  0.5217916E-07
  0.6800000E+01  0.2386516E+07  0.4864517E+04  0.3174915E+00  0.4577186E-03  0.7309030E+00 -0.9498050E-02 -0.8052241E+00  0.7750289E-02 -0.2605531E+07 -0.3669059E+04 -0.4524182E-04  0.1387272E-06
  0.6900000E+01  0.2386516E+07  0.8181094E+04  0.3174915E+00  0.1308183E-02  0.7309030E+00 -0.2756885E-02 -0.8052241E+00  0.6019851E-02 -0.2605531E+07 -0.5834537E+04 -0.4524182E-04  0.2243581E-06
  0.7000000E+01  0.2386516E+07  0.1143427E+05  0.3174915E+00  0.2145850E-02  0.7309030E+00  0.3971512E-02 -0.8052241E+00  0.4277410E-02 -0.2605531E+07 -0.7956362E+04 -0.4524182E-04  0.3086388E-06
  0.7100000E+01  0.2386516E+07  0.1460749E+05  0.3174915E+00  0.2966549E-02  0.7309030E+00  0.1065588E-01 -0.8052241E+00  0.2530796E-02 -0.2605531E+07 -0.1002369E+05 -0.4524182E-04  0.3911443E-06
  0.7200000E+01  0.2386516E+07  0.1768474E+05  0.3174915E+00  0.3766221E-02  0.7309030E+00  0.1726533E-01 -0.8052241E+00  0.7877953E-03 -0.2605531E+07 -0.1202603E+05 -0.4524182E-04  0.4714591E-06
  0.7300000E+01  0.2386516E+07  0.2065054E+05  0.3174915E+00  0.4540935E-02  0.7309030E+00  0.2376932E-01 -0.8052241E+00 -0.9438379E-03 -0.2605531E+07 -0.1395325E+05 -0.4524182E-04  0.5491795E-06
  0.7400000E+01  0.2386516E+07  0.2349014E+05  0.3174915E+00  0.5286927E-02  0.7309030E+00  0.3013810E-01 -0.8052241E+00 -0.2656509E-02 -0.2605531E+07 -0.1579574E+05 -0.4524182E-04  0.6239175E-06
  0.7500000E+01  0.2386516E+07  0.2618955E+05  0.3174915E+00  0.6000603E-02  0.7309030E+00  0.3634259E-01 -0.8052241E+00 -0.4342736E-02 -0.2605531E+07 -0.1754433E+05 -0.4524182E-04  0.6953007E-06
  0.7600000E+01  0.2386516E+07  0.2873557E+05  0.3174915E+00  0.6678562E-02  0.7309030E+00  0.4235469E-01 -0.8052241E+00 -0.5995228E-02 -0.2605531E+07 -0.1919046E+05 -0.4524182E-04  0.7629745E-06
  0.7700000E+01  0.2386516E+07  0.3111593E+05  0.3174915E+00  0.7317615E-02  0.7309030E+00  0.4814735E-01 -0.8052241E+00 -0.7606911E-02 -0.2605531E+07 -0.2072612E+05 -0.4524182E-04  0.8266057E-06
  0.7800000E+01  0.2386516E+07  0.3331925E+05  0.3174915E+00  0.7914786E-02  0.7309030E+00  0.5369455E-01 -0.8052241E+00 -0.9170917E-02 -0.2605531E+07 -0.2214394E+05 -0.4524182E-04  0.8858805E-06
  0.7900000E+01  0.2386516E+07  0.3533523E+05  0.3174915E+00  0.8467355E-02  0.7309030E+00  0.5897171E-01 -0.8052241E+00 -0.1068070E-01 -0.2605531E+07 -0.2343725E+05 -0.4524182E-04  0.9405103E-06
  0.8000000E+01  0.2386516E+07  0.3715458E+05  0.3174915E+00  0.8972840E-02  0.7309030E+00  0.6395555E-01 -0.8052241E+00 -0.1212997E-01 -0.2605531E+07 -0.2460006E+05 -0.4524182E-04  0.9902300E-06
  0.8100000E+01  0.2386516E+07  0.3876914E+05  0.3174915E+00  0.9429036E-02  0.7309030E+00  0.6862435E-01 -0.8052241E+00 -0.1351281E-01 -0.2605531E+07 -0.2562712E+05 -0.4524182E-04  0.1034801E-05
  0.8200000E+01  0.2386516E+07  0.4017186E+05  0.3174915E+00  0.9833995E-02  0.7309030E+00  0.7295792E-01 -0.8052241E+00 -0.1482360E-01 -0.2605531E+07 -0.2651393E+05 -0.4524182E-04  0.1074011E-05
  0.8300000E+01  0.2386516E+07  0.4135691E+05  0.3174915E+00  0.1018607E-01  0.7309030E+00  0.7693783E-01 -0.8052241E+00 -0.1605716E-01 -0.2605531E+07 -0.2725679E+05 -0.4524182E-04  0.1107678E-05
  0.8400001E+01  0.2386516E+07  0.4231960E+05  0.3174915E+00  0.1048389E-01  0.7309030E+00  0.8054735E-01 -0.8052241E+00 -0.1720867E-01 -0.2605531E+07 -0.2785275E+05 -0.4524182E-04  0.1135645E-05
  0.8500000E+01  0.2386516E+07  0.4305648E+05  0.3174915E+00  0.1072637E-01  0.7309030E+00  0.8377155E-01 -0.8052241E+00 -0.1827371E-01 -0.2605531E+07 -0.2829970E+05 -0.4524182E-04  0.1157789E-05
  0.8600000E+01  0.2386516E+07  0.4356535E+05  0.3174915E+00  0.1091275E-01  0.7309030E+00  0.8659752E-01 -0.8052241E+00 -0.1924836E-01 -0.2605531E+07 -0.2859634E+05 -0.4524182E-04  0.1174014E-05
  0.8700000E+01  0.2386516E+07  0.4384520E+05  0.3174915E+00  0.1104255E-01  0.7309030E+00  0.8901417E-01 -0.8052241E+00 -0.2012908E-01 -0.2605531E+07 -0.2874215E+05 -0.4524182E-04  0.1184257E-05
  0.8800000E+01  0.2386516E+07  0.4389625E+05  0.3174915E+00  0.1111559E-01  0.7309030E+00  0.9101249E-01 -0.8052241E+00 -0.2091285E-01 -0.2605531E+07 -0.2873747E+05 -0.4524182E-04  0.1188484E-05
  0.8900001E+01  0.2386516E+07  0.4371998E+05  0.3174915E+00  0.1113200E-01  0.7309030E+00  0.9258543E-01 -0.8052241E+00 -0.2159709E-01 -0.2605531E+07 -0.2858340E+05 -0.4524182E-04  0.1186693E-05
  0.9000000E+01  0.2386516E+07  0.4331904E+05  0.3174915E+00  0.1109221E-01  0.7309030E+00  0.9372801E-01 -0.8052241E+00 -0.2217969E-01 -0.2605531E+07 -0.2828187E+05 -0.4524182E-04  0.1178913E-05
  0.9100000E+01  0.2386516E+07  0.4269727E+05  0.3174915E+00  0.1099691E-01  0.7309030E+00  0.9443729E-01 -0.8052241E+00 -0.2265909E-01 -0.2605531E+07 -0.2783555E+05 -0.4524182E-04  0.1165203E-05
  0.9200000E+01  0.2386516E+07  0.4185967E+05  0.3174915E+00  0.1084711E-01  0.7309030E+00  0.9471237E-01 -0.8052241E+00 -0.2303415E-01 -0.2605531E+07 -0.2724791E+05 -0.4524182E-04  0.1145653E-05
  0.9300000E+01  0.2386516E+07  0.4081233E+05  0.3174915E+00  0.1064408E-01  0.7309030E+00  0.9455444E-01 -0.8052241E+00 -0.2330426E-01 -0.2605531E+07 -0.2652312E+05 -0.4524182E-04  0.1120382E-05
  0.9400001E+01  0.2386516E+07  0.3956245E+05  0.3174915E+00  0.1038938E-01  0.7309030E+00  0.9396669E-01 -0.8052241E+00 -0.2346930E-01 -0.2605531E+07 -0.2566608E+05 -0.4524182E-04  0.1089538E-05
  0.9500000E+01  0.2386516E+07  0.3811827E+05  0.3174915E+00  0.1008481E-01  0.7309030E+00  0.9295432E-01 -0.8052241E+00 -0.2352962E-01 -0.2605531E+07 -0.2468237E+05 -0.4524182E-04  0.1053297E-05
  0.9600000E+01  0.2386516E+07  0.3648898E+05  0.3174915E+00  0.9732411E-02  0.7309030E+00  0.9152450E-01 -0.8052241E+00 -0.2348607E-01 -0.2605531E+07 -0.2357819E+05 -0.4524182E-04  0.1011863E-05
  0.9700000E+01  0.2386516E+07  0.3468473E+05  0.3174915E+00  0.9334490E-02  0.7309030E+00  0.8968631E-01 -0.8052241E+00 -0.2333998E-01 -0.2605531E+07 -0.2236038E+05 -0.4524182E-04  0.9654663E-06
  0.9800000E+01  0.2386516E+07  0.3271649E+05  0.3174915E+00  0.8893539E-02  0.7309030E+00  0.8745068E-01 -0.8052241E+00 -0.2309311E-01 -0.2605531E+07 -0.2103629E+05 -0.4524182E-04  0.9143591E-06
  0.9900001E+01  0.2386516E+07  0.3059606E+05  0.3174915E+00  0.8412278E-02  0.7309030E+00  0.8483036E-01 -0.8052241E+00 -0.2274769E-01 -0.2605531E+07 -0.1961384E+05 -0.4524182E-04  0.8588198E-06
Zone t="DoF    2",I=   100,F=POINT
  0.0000000E+00 -0.4436206E+00 -0.3080000E-02  0.2386515E+07  0.5311261E+05 -0.2644922E+01 -0.1622992E+00  0.2605530E+07  0.3454771E+05  0.3237876E+00 -0.1419903E-01  0.1026153E-04  0.9512075E-06
  0.1000000E+00 -0.4436206E+00 -0.3076485E-02  0.2386515E+07  0.5297888E+05 -0.2644922E+01 -0.1620279E+00  0.2605530E+07  0.3446018E+05  0.3237876E+00 -0.1416706E-01  0.1026153E-04  0.9493080E-06
  0.2000000E+00 -0.4436206E+00 -0.3065943E-02  0.2386515E+07  0.5257842E+05 -0.2644922E+01 -0.1612153E+00  0.2605530E+07  0.3419804E+05  0.3237876E+00 -0.1407131E-01  0.1026153E-04  0.9436176E-06
  0.3000000E+00 -0.4436206E+00 -0.3048373E-02  0.2386515E+07  0.5191330E+05 -0.2644922E+01 -0.1598639E+00  0.2605530E+07  0.3376267E+05  0.3237876E+00 -0.1391224E-01  0.1026153E-04  0.9341603E-06
  0.4000000E+00 -0.4436206E+00 -0.3023780E-02  0.2386515E+07  0.5098700E+05 -0.2644922E+01 -0.1579786E+00  0.2605530E+07  0.3315634E+05  0.3237876E+00 -0.1369060E-01  0.1026153E-04  0.9209759E-06
  0.5000000E+00 -0.4436206E+00 -0.2992171E-02  0.2386515E+07  0.4980434E+05 -0.2644922E+01 -0.1555658E+00  0.2605530E+07  0.3238225E+05  0.3237876E+00 -0.1340748E-01  0.1026153E-04  0.9041205E-06
  0.6000000E+00 -0.4436206E+00 -0.2953552E-02  0.2386515E+07  0.4837150E+05 -0.2644922E+01 -0.1526339E+00  0.2605530E+07  0.3144444E+05  0.3237876E+00 -0.1306422E-01  0.1026153E-04  0.8836650E-06
  0.7000000E+00 -0.4436206E+00 -0.2907936E-02  0.2386515E+07  0.4669594E+05 -0.2644922E+01 -0.1491931E+00  0.2605530E+07  0.3034783E+05  0.3237876E+00 -0.1266247E-01  0.1026153E-04  0.8596955E-06
  0.8000000E+00 -0.4436206E+00 -0.2855337E-02  0.2386515E+07  0.4478638E+05 -0.2644922E+01 -0.1452552E+00  0.2605530E+07  0.2909816E+05  0.3237876E+00 -0.1220416E-01  0.1026153E-04  0.8323139E-06
  0.9000000E+00 -0.4436206E+00 -0.2795775E-02  0.2386515E+07  0.4265278E+05 -0.2644922E+01 -0.1408340E+00  0.2605530E+07  0.2770197E+05  0.3237876E+00 -0.1169148E-01  0.1026153E-04  0.8016351E-06
  0.1000000E+01 -0.4436206E+00 -0.2729277E-02  0.2386515E+07  0.4030625E+05 -0.2644922E+01 -0.1359445E+00  0.2605530E+07  0.2616656E+05  0.3237876E+00 -0.1112690E-01  0.1026153E-04  0.7677889E-06
  0.1100000E+01 -0.4436206E+00 -0.2655875E-02  0.2386515E+07  0.3775898E+05 -0.2644922E+01 -0.1306039E+00  0.2605530E+07  0.2449998E+05  0.3237876E+00 -0.1051311E-01  0.1026153E-04  0.7309180E-06
  0.1200000E+01 -0.4436206E+00 -0.2575609E-02  0.2386515E+07  0.3502424E+05 -0.2644922E+01 -0.1248305E+00  0.2605530E+07  0.2271093E+05  0.3237876E+00 -0.9853045E-02  0.1026153E-04  0.6911778E-06
  0.1300000E+01 -0.4436206E+00 -0.2488531E-02  0.2386515E+07  0.3211623E+05 -0.2644922E+01 -0.1186443E+00  0.2605530E+07  0.2080877E+05  0.3237876E+00 -0.9149858E-02  0.1026153E-04  0.6487357E-06
  0.1400000E+01 -0.4436206E+00 -0.2394698E-02  0.2386515E+07  0.2905006E+05 -0.2644922E+01 -0.1120666E+00  0.2605530E+07  0.1880341E+05  0.3237876E+00 -0.8406904E-02  0.1026153E-04  0.6037705E-06
  0.1500000E+01 -0.4436206E+00 -0.2294187E-02  0.2386515E+07  0.2584165E+05 -0.2644922E+01 -0.1051201E+00  0.2605530E+07  0.1670532E+05  0.3237876E+00 -0.7627720E-02  0.1026153E-04  0.5564716E-06
  0.1600000E+01 -0.4436206E+00 -0.2187083E-02  0.2386515E+07  0.2250762E+05 -0.2644922E+01 -0.9782871E-01  0.2605530E+07  0.1452545E+05  0.3237876E+00 -0.6816013E-02  0.1026153E-04  0.5070378E-06
  0.1700000E+01 -0.4436206E+00 -0.2073486E-02  0.2386515E+07  0.1906526E+05 -0.2644922E+01 -0.9021765E-01  0.2605530E+07  0.1227515E+05  0.3237876E+00 -0.5975636E-02  0.1026153E-04  0.4556769E-06
  0.1800000E+01 -0.4436206E+00 -0.1953514E-02  0.2386515E+07  0.1553239E+05 -0.2644922E+01 -0.8231305E-01  0.2605530E+07  0.9966114E+04  0.3237876E+00 -0.5110573E-02  0.1026153E-04  0.4026048E-06
  0.1900000E+01 -0.4436206E+00 -0.1827303E-02  0.2386515E+07  0.1192726E+05 -0.2644922E+01 -0.7414210E-01  0.2605530E+07  0.7610361E+04  0.3237876E+00 -0.4224919E-02  0.1026153E-04  0.3480442E-06
  0.2000000E+01 -0.4436206E+00 -0.1695007E-02  0.2386515E+07  0.8268483E+04 -0.2644922E+01 -0.6573287E-01  0.2605530E+07  0.5220112E+04  0.3237876E+00 -0.3322850E-02  0.1026153E-04  0.2922236E-06
  0.2100000E+01 -0.4436206E+00 -0.1556801E-02  0.2386515E+07  0.4574934E+04 -0.2644922E+01 -0.5711421E-01  0.2605530E+07  0.2807759E+04  0.3237876E+00 -0.2408617E-02  0.1026153E-04  0.2353769E-06
  0.2200000E+01 -0.4436206E+00 -0.1412882E-02  0.2386515E+07  0.8656387E+03 -0.2644922E+01 -0.4831570E-01  0.2605530E+07  0.3858000E+03  0.3237876E+00 -0.1486518E-02  0.1026153E-04  0.1777422E-06
  0.2300000E+01 -0.4436206E+00 -0.1263468E-02  0.2386515E+07 -0.2840340E+04 -0.2644922E+01 -0.3936745E-01  0.2605530E+07 -0.2033249E+04  0.3237876E+00 -0.5608701E-03  0.1026153E-04  0.1195600E-06
  0.2400000E+01 -0.4436206E+00 -0.1108803E-02  0.2386515E+07 -0.6523998E+04 -0.2644922E+01 -0.3030005E-01  0.2605530E+07 -0.4436913E+04  0.3237876E+00  0.3640041E-03  0.1026153E-04  0.6107292E-07
  0.2500000E+01 -0.4436206E+00 -0.9491554E-03  0.2386515E+07 -0.1016644E+05 -0.2644922E+01 -0.2114448E-01  0.2605530E+07 -0.6812797E+04  0.3237876E+00  0.1283794E-02  0.1026153E-04  0.2524866E-08
  0.2600000E+01 -0.4436206E+00 -0.7848198E-03  0.2386515E+07 -0.1374909E+05 -0.2644922E+01 -0.1193196E-01  0.2605530E+07 -0.9148703E+04  0.3237876E+00  0.2194238E-02  0.1026153E-04 -0.5584096E-07
  0.2700000E+01 -0.4436206E+00 -0.6161159E-03  0.2386515E+07 -0.1725364E+05 -0.2644922E+01 -0.2693881E-02  0.2605530E+07 -0.1143264E+05  0.3237876E+00  0.3091123E-02  0.1026153E-04 -0.1137820E-06
  0.2800000E+01 -0.4436206E+00 -0.4433912E-03  0.2386515E+07 -0.2066229E+05 -0.2644922E+01  0.6538359E-02  0.2605530E+07 -0.1365293E+05  0.3237876E+00  0.3970326E-02  0.1026153E-04 -0.1710587E-06
  0.2900000E+01 -0.4436206E+00 -0.2670206E-03  0.2386515E+07 -0.2395776E+05 -0.2644922E+01  0.1573347E-01  0.2605530E+07 -0.1579826E+05  0.3237876E+00  0.4827824E-02  0.1026153E-04 -0.2274342E-06
  0.3000000E+01 -0.4436206E+00 -0.8740641E-04  0.2386515E+07 -0.2712340E+05 -0.2644922E+01  0.2486025E-01  0.2605530E+07 -0.1785771E+05  0.3237876E+00  0.5659709E-02  0.1026153E-04 -0.2826763E-06
  0.3100000E+01 -0.4436206E+00  0.9502249E-04  0.2386515E+07 -0.3014327E+05 -0.2644922E+01  0.3388792E-01  0.2605530E+07 -0.1982087E+05  0.3237876E+00  0.6462217E-02  0.1026153E-04 -0.3365580E-06
  0.3200000E+01 -0.4436206E+00  0.2798093E-03  0.2386515E+07 -0.3300223E+05 -0.2644922E+01  0.4278597E-01  0.2605530E+07 -0.2167781E+05  0.3237876E+00  0.7231740E-02  0.1026153E-04 -0.3888589E-06
  0.3300000E+01 -0.4436206E+00  0.4664693E-03  0.2386515E+07 -0.3568602E+05 -0.2644922E+01  0.5152450E-01  0.2605530E+07 -0.2341923E+05  0.3237876E+00  0.7964842E-02  0.1026153E-04 -0.4393654E-06
  0.3400000E+01 -0.4436206E+00  0.6544947E-03  0.2386515E+07 -0.3818137E+05 -0.2644922E+01  0.6007421E-01  0.2605530E+07 -0.2503645E+05  0.3237876E+00  0.8658290E-02  0.1026153E-04 -0.4878729E-06
  0.3500000E+01 -0.4436206E+00  0.8433500E-03  0.2386515E+07 -0.4047595E+05 -0.2644922E+01  0.6840649E-01  0.2605530E+07 -0.2652144E+05  0.3237876E+00  0.9309040E-02  0.1026153E-04 -0.5341848E-06
  0.3600000E+01 -0.4436206E+00  0.1032477E-02  0.2386515E+07 -0.4255859E+05 -0.2644922E+01  0.7649355E-01  0.2605530E+07 -0.2786692E+05  0.3237876E+00  0.9914283E-02  0.1026153E-04 -0.5781158E-06
  0.3700000E+01 -0.4436206E+00  0.1221293E-02  0.2386515E+07 -0.4441921E+05 -0.2644922E+01  0.8430852E-01  0.2605530E+07 -0.2906632E+05  0.3237876E+00  0.1047143E-01  0.1026153E-04 -0.6194899E-06
  0.3800000E+01 -0.4436206E+00  0.1409195E-02  0.2386515E+07 -0.4604895E+05 -0.2644922E+01  0.9182552E-01  0.2605530E+07 -0.3011389E+05  0.3237876E+00  0.1097816E-01  0.1026153E-04 -0.6581437E-06
  0.3900000E+01 -0.4436206E+00  0.1595564E-02  0.2386515E+07 -0.4744018E+05 -0.2644922E+01  0.9901981E-01  0.2605530E+07 -0.3100471E+05  0.3237876E+00  0.1143238E-01  0.1026153E-04 -0.6939259E-06
  0.4000000E+01 -0.4436206E+00  0.1779758E-02  0.2386515E+07 -0.4858650E+05 -0.2644922E+01  0.1058678E+00  0.2605530E+07 -0.3173464E+05  0.3237876E+00  0.1183228E-01  0.1026153E-04 -0.7266974E-06
  0.4100000E+01 -0.4436206E+00  0.1961122E-02  0.2386515E+07 -0.4948289E+05 -0.2644922E+01  0.1123471E+00  0.2605530E+07 -0.3230046E+05  0.3237876E+00  0.1217632E-01  0.1026153E-04 -0.7563330E-06
  0.4200000E+01 -0.4436206E+00  0.2138992E-02  0.2386515E+07 -0.5012558E+05 -0.2644922E+01  0.1184367E+00  0.2605530E+07 -0.3269979E+05  0.3237876E+00  0.1246324E-01  0.1026153E-04 -0.7827218E-06
  0.4300000E+01 -0.4436206E+00  0.2312687E-02  0.2386515E+07 -0.5051219E+05 -0.2644922E+01  0.1241171E+00  0.2605530E+07 -0.3293112E+05  0.3237876E+00  0.1269205E-01  0.1026153E-04 -0.8057664E-06
  0.4400000E+01 -0.4436206E+00  0.2481523E-02  0.2386515E+07 -0.5064165E+05 -0.2644922E+01  0.1293700E+00  0.2605530E+07 -0.3299389E+05  0.3237876E+00  0.1286206E-01  0.1026153E-04 -0.8253853E-06
  0.4500000E+01 -0.4436206E+00  0.2644811E-02  0.2386515E+07 -0.5051428E+05 -0.2644922E+01  0.1341790E+00  0.2605530E+07 -0.3288836E+05  0.3237876E+00  0.1297287E-01  0.1026153E-04 -0.8415114E-06
  0.4600000E+01 -0.4436206E+00  0.2801863E-02  0.2386515E+07 -0.5013172E+05 -0.2644922E+01  0.1385288E+00  0.2605530E+07 -0.3261572E+05  0.3237876E+00  0.1302436E-01  0.1026153E-04 -0.8540936E-06
  0.4700000E+01 -0.4436206E+00  0.2951989E-02  0.2386515E+07 -0.4949695E+05 -0.2644922E+01  0.1424063E+00  0.2605530E+07 -0.3217802E+05  0.3237876E+00  0.1301671E-01  0.1026153E-04 -0.8630962E-06
  0.4800000E+01 -0.4436206E+00  0.3094507E-02  0.2386515E+07 -0.4861427E+05 -0.2644922E+01  0.1457996E+00  0.2605530E+07 -0.3157816E+05  0.3237876E+00  0.1295037E-01  0.1026153E-04 -0.8684994E-06
  0.4900000E+01 -0.4436206E+00  0.3228742E-02  0.2386515E+07 -0.4748923E+05 -0.2644922E+01  0.1486987E+00  0.2605530E+07 -0.3081992E+05  0.3237876E+00  0.1282610E-01  0.1026153E-04 -0.8702991E-06
  0.5000000E+01 -0.4436206E+00  0.3354036E-02  0.2386515E+07 -0.4612869E+05 -0.2644922E+01  0.1510954E+00  0.2605530E+07 -0.2990787E+05  0.3237876E+00  0.1264489E-01  0.1026153E-04 -0.8685071E-06