VARIABLES="w (rad/s)"
"A   1   1" "B   1   1"
"A   1   2" "B   1   2"
"A   1   3" "B   1   3"
"A   1   4" "B   1   4"
"A   1   5" "B   1   5"
"A   1   6" "B   1   6"
Zone t="Motion of body    1 in DoF   1",I=     5,F=POINT
  0.5236000E+00  0.2257119E+07  0.6975450E+05  0.3511620E-01  0.1011467E-01 -0.2266925E+00 -0.3248731E+00 -0.2437303E+01 -0.2321329E+00 -0.2517506E+07 -0.4087727E+05 -0.3648451E-04 -0.1162291E-05
  0.5890500E+00  0.2377176E+07  0.1375045E+06  0.5383642E+00  0.6753540E-01  0.1396940E+01  0.6463943E+00 -0.1674712E+01 -0.1427991E+00 -0.2603289E+07 -0.8399795E+05 -0.3162117E-04  0.2313405E-05
  0.6545000E+00  0.2505092E+07  0.2620068E+06  0.3562094E+00  0.5124283E-01  0.1377246E+01  0.9830306E+00 -0.1103305E+00 -0.2061830E+00 -0.2681616E+07 -0.1663388E+06 -0.7203556E-04  0.5632639E-05
  0.7199500E+00  0.2586902E+07  0.4640892E+06  0.2143479E+00  0.1232491E+00  0.9943977E+00  0.8191433E+00 -0.3524037E+00 -0.2402174E+00 -0.2745018E+07 -0.3054522E+06 -0.6225806E-04  0.1953542E-04
  0.7854000E+00  0.2594656E+07  0.7524452E+06  0.5272967E+00  0.1710320E+00  0.5610347E+00  0.5055513E+00  0.5557255E+00 -0.7603934E-01 -0.2743624E+07 -0.5058317E+06 -0.1312911E-04  0.7480383E-05
Zone t="Motion of body    1 in DoF   2",I=     5,F=POINT
  0.5236000E+00 -0.1159680E+01 -0.6136036E-01  0.2257118E+07  0.6975442E+05 -0.7045087E+01 -0.3165085E+01  0.2517505E+07  0.4087745E+05  0.1050030E+01 -0.6210596E-01  0.2765865E-04  0.1839292E-04
  0.5890500E+00 -0.7381881E+00 -0.4399300E-01  0.2377174E+07  0.1375043E+06 -0.3359662E+01 -0.1763623E+01  0.2603286E+07  0.8399788E+05  0.1001948E+01 -0.1199644E+00  0.1013142E-04  0.3244495E-05
  0.6545000E+00 -0.2966430E+00 -0.1145363E-01  0.2505090E+07  0.2620065E+06 -0.7137857E+00 -0.2628445E+00  0.2681615E+07  0.1663387E+06 -0.2231599E+00 -0.2045353E-01  0.5786864E-04 -0.7025898E-05
  0.7199500E+00 -0.3520786E+00 -0.4244614E-01  0.2586901E+07  0.4640891E+06 -0.4181823E+00 -0.3323838E+00  0.2745016E+07  0.3054522E+06  0.4286595E+00 -0.9975466E-01 -0.3119630E-04  0.2292264E-04
  0.7854000E+00  0.3882113E+00  0.1093063E+00  0.2594658E+07  0.7524454E+06  0.9321950E-01  0.9244740E-01  0.2743624E+07  0.5058317E+06 -0.6598892E+00 -0.1391007E+00 -0.1597976E-04 -0.1101755E-04
Zone t="Motion of body    1 in DoF   3",I=     5,F=POINT
  0.5236000E+00 -0.1243784E+00  0.6072998E-02 -0.5995690E+00  0.1339912E-01  0.1885572E+07  0.2471278E+06  0.4273383E+01 -0.6042147E-01 -0.5618125E+01  0.1533661E+00  0.6414444E-02  0.4147559E-02
  0.5890500E+00  0.2909544E+00  0.1760864E-01  0.4846132E+00  0.3231430E-01  0.1817409E+07  0.2642180E+06 -0.4763822E+00  0.1683483E+00  0.1901876E+00  0.8209991E-01  0.5304186E-02  0.4779339E-02
  0.6545000E+00  0.4177807E-01 -0.8544922E-02  0.4033904E+00  0.7368469E-01  0.1745865E+07  0.2759361E+06  0.2981322E+00 -0.7386208E-02  0.1135888E+01  0.1983643E-01  0.4120438E-02  0.5351335E-02
  0.7199500E+00  0.2150791E+00  0.4919434E-01  0.4852844E+00  0.1383820E+00  0.1691099E+07  0.2672288E+06 -0.1946902E+00  0.3849745E-01  0.1075311E+01  0.5000305E-01  0.2826740E-02  0.5698249E-02
  0.7854000E+00 -0.2442494E+00 -0.6866455E-01  0.3966819E+00  0.1152077E+00  0.1650988E+07  0.2481277E+06 -0.1777375E+00  0.1313896E+00  0.2221014E+00 -0.3098679E-01  0.1732549E-02  0.5790547E-02
Zone t="Motion of body    1 in DoF   4",I=     5,F=POINT
  0.5236000E+00 -0.7100029E+01 -0.3051009E+00  0.2807782E+07  0.5307721E+05 -0.1559481E+02 -0.9442801E+01  0.2647158E+08  0.3111013E+05 -0.8409018E+00 -0.2611489E+00  0.3111642E-04 -0.2946821E-05
  0.5890500E+00 -0.1520271E+01 -0.1524153E+00  0.2904429E+07  0.1064782E+06 -0.2222807E+02 -0.9896584E+01  0.2659422E+08  0.6483670E+05  0.1214791E+02 -0.4836715E+00  0.4055732E-04 -0.2603978E-05
  0.6545000E+00 -0.1868858E+01 -0.1707191E+00  0.2999904E+07  0.2080848E+06 -0.7983253E+01 -0.4092767E+01  0.2657759E+08  0.1317098E+06 -0.5232584E+01 -0.2656320E+00 -0.2679705E-04  0.7939059E-05
  0.7199500E+00 -0.2598434E+01 -0.3644543E+00  0.3058713E+07  0.3737334E+06 -0.5145171E+01 -0.3861304E+01  0.2666387E+08  0.2451338E+06  0.1644414E+01 -0.5636013E+00  0.8698122E-05 -0.4190020E-05
  0.7854000E+00  0.1330394E+01  0.5293312E+00  0.3049341E+07  0.6101979E+06  0.1148878E+00  0.2660040E+01  0.2666383E+08  0.4109820E+06 -0.1681231E+01 -0.1227281E+00 -0.9582164E-04  0.1260825E-04
Zone t="Motion of body    1 in DoF   5",I=     5,F=POINT
  0.5236000E+00 -0.2807784E+07 -0.5307741E+05  0.4172970E+01  0.9182930E-01 -0.7732033E+01  0.3155690E-01  0.6973265E+01  0.4183624E+00  0.2647158E+08  0.3110934E+05  0.8497874E-04  0.1311302E-05
  0.5890500E+00 -0.2904440E+07 -0.1064791E+06 -0.1455510E+01 -0.2229090E+00 -0.3555929E+01 -0.1657193E+01  0.1237323E+02  0.6537327E+00  0.2659422E+08  0.6483635E+05 -0.2681475E-04 -0.2652407E-05
  0.6545000E+00 -0.2999910E+07 -0.2080857E+06  0.8819557E-01 -0.2404346E+00 -0.6435875E+01 -0.4903749E+01 -0.1516062E+01  0.6599041E+00  0.2657760E+08  0.1317098E+06 -0.2467969E-04 -0.6482005E-06
  0.7199500E+00 -0.3058716E+07 -0.3737345E+06 -0.6209487E+00 -0.5606613E+00 -0.3398898E+01 -0.4551146E+01  0.3509665E+01  0.1050751E+01  0.2666388E+08  0.2451339E+06 -0.6590082E-04 -0.6988645E-05
  0.7854000E+00 -0.3049337E+07 -0.6101967E+06 -0.2010376E+01 -0.6380959E+00 -0.4365444E+01 -0.4287960E+01 -0.5464782E+00 -0.3270015E-01  0.2666382E+08  0.4109829E+06 -0.5995375E-05  0.2458692E-05
Zone t="Motion of body    1 in DoF   6",I=     5,F=POINT
  0.5236000E+00 -0.2377043E-04 -0.6508444E-06 -0.2986978E-04 -0.3052635E-06  0.7052947E-02  0.4446668E-02 -0.2240222E-04  0.1346938E-05  0.3690581E-04  0.3205511E-05  0.8419919E-01  0.2835553E-06
  0.5890500E+00 -0.2098381E-04 -0.9458363E-06  0.1012767E-04  0.8644319E-06  0.5870854E-02  0.5133792E-02  0.1106968E-04  0.4190542E-05  0.3208442E-04 -0.4892845E-05  0.8422556E-01  0.4649274E-06
  0.6545000E+00  0.1248499E-04  0.1991370E-05 -0.1873317E-04  0.4496713E-06  0.4650562E-02  0.5825205E-02 -0.3329543E-04  0.8060497E-05  0.2768045E-05  0.2642642E-05  0.8437200E-01 -0.4146022E-05
  0.7199500E+00 -0.4608815E-04 -0.3755782E-05  0.3496744E-04  0.1617154E-05  0.3199818E-02  0.6114625E-02  0.1976701E-04  0.1643915E-05  0.2697659E-04 -0.2815951E-05  0.8428990E-01 -0.3186110E-05
  0.7854000E+00  0.4050672E-05  0.3295972E-05 -0.8201515E-04 -0.2290380E-04  0.2055703E-02  0.6319907E-02 -0.6650831E-04 -0.8613732E-05 -0.4874104E-04 -0.8371879E-05  0.8439782E-01 -0.2592828E-04
