 VARIABLES="X" "Y" "Z" "abs(eta) (m)" "angle(phi) (rad)" "PRE1" "PRE2"
ZONE N=   3200 ,E =    3136 ,F=FEPOINT,ET=QUADRILATERAL
  0.1672800E+02  0.0000000E+00  0.0000000E+00  0.3903342E+00 -0.9041142E+00 -0.2413756E+00  0.3067549E+00
  0.1664750E+02  0.1639630E+01  0.0000000E+00  0.3878974E+00 -0.8992288E+00 -0.2413551E+00  0.3036644E+00
  0.1640660E+02  0.3263470E+01  0.0000000E+00  0.3839506E+00 -0.8974333E+00 -0.2394387E+00  0.3001452E+00
  0.1600770E+02  0.4855880E+01  0.0000000E+00  0.3801101E+00 -0.8997413E+00 -0.2363573E+00  0.2976894E+00
  0.1545470E+02  0.6401530E+01  0.0000000E+00  0.3769343E+00 -0.9066339E+00 -0.2323422E+00  0.2968106E+00
  0.1475280E+02  0.7885530E+01  0.0000000E+00  0.3732490E+00 -0.9169804E+00 -0.2270174E+00  0.2962734E+00
  0.1390880E+02  0.9293580E+01  0.0000000E+00  0.3661764E+00 -0.9293234E+00 -0.2191112E+00  0.2933861E+00
  0.1293090E+02  0.1061210E+02  0.0000000E+00  0.3526132E+00 -0.9430199E+00 -0.2071062E+00  0.2853824E+00
  0.1182850E+02  0.1182850E+02  0.0000000E+00  0.3387934E+00 -0.9604723E+00 -0.1941737E+00  0.2776285E+00
  0.1061210E+02  0.1293090E+02  0.0000000E+00  0.3231528E+00 -0.9811754E+00 -0.1796878E+00  0.2685889E+00
  0.9293580E+01  0.1390880E+02  0.0000000E+00  0.3015768E+00 -0.1005740E+01 -0.1614833E+00  0.2546992E+00
  0.7885520E+01  0.1475280E+02  0.0000000E+00  0.2776411E+00 -0.1035054E+01 -0.1417301E+00  0.2387407E+00
  0.6401530E+01  0.1545470E+02  0.0000000E+00  0.2450154E+00 -0.1072947E+01 -0.1170039E+00  0.2152734E+00
  0.4855880E+01  0.1600770E+02  0.0000000E+00  0.1976328E+00 -0.1131373E+01 -0.8407656E-01  0.1788571E+00
  0.3263470E+01  0.1640660E+02  0.0000000E+00  0.1260929E+00 -0.1271233E+01 -0.3721042E-01  0.1204774E+00
  0.1639630E+01  0.1664750E+02  0.0000000E+00  0.4563211E-01 -0.2204288E+01  0.2701248E-01  0.3677792E-01
 -0.7312040E-06  0.1672800E+02  0.0000000E+00  0.9212207E-01  0.2745300E+01  0.8498245E-01 -0.3555922E-01
 -0.1639630E+01  0.1664750E+02  0.0000000E+00  0.1602770E+00  0.2535143E+01  0.1316959E+00 -0.9135053E-01
 -0.3263470E+01  0.1640660E+02  0.0000000E+00  0.2147148E+00  0.2466581E+01  0.1676278E+00 -0.1341767E+00
 -0.4855880E+01  0.1600770E+02  0.0000000E+00  0.2447691E+00  0.2447264E+01  0.1881010E+00 -0.1566203E+00
 -0.6401530E+01  0.1545470E+02  0.0000000E+00  0.2640368E+00  0.2442777E+01  0.2021478E+00 -0.1698579E+00
 -0.7885530E+01  0.1475280E+02  0.0000000E+00  0.2749751E+00  0.2447673E+01  0.2113857E+00 -0.1758619E+00
 -0.9293580E+01  0.1390880E+02  0.0000000E+00  0.2818263E+00  0.2455849E+01  0.2181191E+00 -0.1784661E+00
 -0.1061210E+02  0.1293090E+02  0.0000000E+00  0.2889582E+00  0.2461981E+01  0.2247566E+00 -0.1816076E+00
 -0.1182850E+02  0.1182850E+02  0.0000000E+00  0.2923990E+00  0.2470223E+01  0.2289398E+00 -0.1818894E+00
 -0.1293090E+02  0.1061210E+02  0.0000000E+00  0.2947638E+00  0.2477830E+01  0.2321795E+00 -0.1815995E+00
 -0.1390880E+02  0.9293580E+01  0.0000000E+00  0.2967735E+00  0.2483255E+01  0.2347509E+00 -0.1815668E+00
 -0.1475280E+02  0.7885520E+01  0.0000000E+00  0.2942814E+00  0.2492125E+01  0.2343674E+00 -0.1779705E+00
 -0.1545470E+02  0.6401530E+01  0.0000000E+00  0.2896526E+00  0.2501501E+01  0.2323132E+00 -0.1730006E+00
 -0.1600770E+02  0.4855880E+01  0.0000000E+00  0.2848915E+00  0.2507513E+01  0.2295134E+00 -0.1687802E+00
 -0.1640660E+02  0.3263470E+01  0.0000000E+00  0.2805736E+00  0.2507955E+01  0.2261084E+00 -0.1661221E+00
 -0.1664750E+02  0.1639630E+01  0.0000000E+00  0.2760498E+00  0.2504619E+01  0.2219163E+00 -0.1641848E+00
 -0.1672800E+02 -0.1462410E-05  0.0000000E+00  0.2705796E+00  0.2499360E+01  0.2166695E+00 -0.1620730E+00
 -0.1664750E+02 -0.1639630E+01  0.0000000E+00  0.2640733E+00  0.2492786E+01  0.2104151E+00 -0.1595625E+00
 -0.1640660E+02 -0.3263470E+01  0.0000000E+00  0.2565703E+00  0.2484929E+01  0.2032122E+00 -0.1566305E+00
 -0.1600770E+02 -0.4855890E+01  0.0000000E+00  0.2487423E+00  0.2470750E+01  0.1948393E+00 -0.1546298E+00
 -0.1545470E+02 -0.6401530E+01  0.0000000E+00  0.2410501E+00  0.2448339E+01  0.1854088E+00 -0.1540414E+00
 -0.1475280E+02 -0.7885530E+01  0.0000000E+00  0.2328379E+00  0.2420800E+01  0.1749272E+00 -0.1536684E+00
 -0.1390880E+02 -0.9293580E+01  0.0000000E+00  0.2225261E+00  0.2396271E+01  0.1635277E+00 -0.1509190E+00
 -0.1293090E+02 -0.1061210E+02  0.0000000E+00  0.2083084E+00  0.2384404E+01  0.1513923E+00 -0.1430830E+00
 -0.1182850E+02 -0.1182850E+02  0.0000000E+00  0.1936461E+00  0.2367018E+01  0.1384025E+00 -0.1354384E+00
 -0.1061210E+02 -0.1293090E+02  0.0000000E+00  0.1775617E+00  0.2348855E+01  0.1246302E+00 -0.1264732E+00
 -0.9293580E+01 -0.1390880E+02  0.0000000E+00  0.1577584E+00  0.2346126E+01  0.1104232E+00 -0.1126695E+00
 -0.7885520E+01 -0.1475280E+02  0.0000000E+00  0.1362519E+00  0.2351310E+01  0.9587285E-01 -0.9681409E-01
 -0.6401520E+01 -0.1545470E+02  0.0000000E+00  0.1098010E+00  0.2407620E+01  0.8152930E-01 -0.7354742E-01
 -0.4855880E+01 -0.1600770E+02  0.0000000E+00  0.7738910E-01  0.2635922E+01  0.6770385E-01 -0.3748682E-01
 -0.3263470E+01 -0.1640660E+02  0.0000000E+00  0.5994001E-01 -0.2797575E+01  0.5642796E-01  0.2021608E-01
 -0.1639630E+01 -0.1664750E+02  0.0000000E+00  0.1132479E+00 -0.1993694E+01  0.4647742E-01  0.1032712E+00
  0.1994790E-06 -0.1672800E+02  0.0000000E+00  0.1784316E+00 -0.1742047E+01  0.3040742E-01  0.1758215E+00
  0.1639640E+01 -0.1664750E+02  0.0000000E+00  0.2329319E+00 -0.1590736E+01  0.4644193E-02  0.2328856E+00
  0.3263470E+01 -0.1640660E+02  0.0000000E+00  0.2793004E+00 -0.1464982E+01 -0.2949883E-01  0.2777383E+00
  0.4855890E+01 -0.1600770E+02  0.0000000E+00  0.3083177E+00 -0.1366661E+01 -0.6250223E-01  0.3019160E+00
  0.6401530E+01 -0.1545470E+02  0.0000000E+00  0.3290138E+00 -0.1292243E+01 -0.9046714E-01  0.3163317E+00
  0.7885520E+01 -0.1475280E+02  0.0000000E+00  0.3430470E+00 -0.1228658E+01 -0.1150930E+00  0.3231638E+00
  0.9293580E+01 -0.1390880E+02  0.0000000E+00  0.3538492E+00 -0.1173515E+01 -0.1369088E+00  0.3262902E+00
  0.1061210E+02 -0.1293090E+02  0.0000000E+00  0.3648707E+00 -0.1128065E+01 -0.1563138E+00  0.3296917E+00
  0.1182850E+02 -0.1182850E+02  0.0000000E+00  0.3728538E+00 -0.1086807E+01 -0.1734940E+00  0.3300300E+00
  0.1293090E+02 -0.1061210E+02  0.0000000E+00  0.3798443E+00 -0.1050779E+01 -0.1887429E+00  0.3296328E+00
  0.1390880E+02 -0.9293580E+01  0.0000000E+00  0.3865748E+00 -0.1019848E+01 -0.2023702E+00  0.3293726E+00
  0.1475280E+02 -0.7885520E+01  0.0000000E+00  0.3893185E+00 -0.9897248E+00 -0.2137047E+00  0.3254216E+00
  0.1545470E+02 -0.6401530E+01  0.0000000E+00  0.3899098E+00 -0.9624170E+00 -0.2228484E+00  0.3199504E+00
  0.1600770E+02 -0.4855880E+01  0.0000000E+00  0.3901879E+00 -0.9402214E+00 -0.2300584E+00  0.3151504E+00
  0.1640660E+02 -0.3263470E+01  0.0000000E+00  0.3908960E+00 -0.9238912E+00 -0.2356007E+00  0.3119166E+00
  0.1664750E+02 -0.1639620E+01  0.0000000E+00  0.3912538E+00 -0.9121966E+00 -0.2394512E+00  0.3094231E+00
  0.1672800E+02  0.0000000E+00 -0.2568960E-01  0.3898325E+00 -0.9041503E+00 -0.2410543E+00  0.3063694E+00
  0.1664750E+02  0.1639630E+01 -0.2568960E-01  0.3874015E+00 -0.8992605E+00 -0.2410370E+00  0.3032839E+00
  0.1640660E+02  0.3263470E+01 -0.2568960E-01  0.3834636E+00 -0.8974614E+00 -0.2391266E+00  0.2997713E+00
  0.1600770E+02  0.4855880E+01 -0.2568960E-01  0.3796230E+00 -0.8997681E+00 -0.2360464E+00  0.2973141E+00
  0.1545470E+02  0.6401530E+01 -0.2568960E-01  0.3764347E+00 -0.9066517E+00 -0.2320290E+00  0.2964214E+00
  0.1475280E+02  0.7885530E+01 -0.2568960E-01  0.3727328E+00 -0.9169890E+00 -0.2267009E+00  0.2958655E+00
  0.1390880E+02  0.9293580E+01 -0.2568960E-01  0.3656621E+00 -0.9293255E+00 -0.2188029E+00  0.2929745E+00
  0.1293090E+02  0.1061210E+02 -0.2568960E-01  0.3521403E+00 -0.9430316E+00 -0.2068250E+00  0.2850021E+00
  0.1182850E+02  0.1182850E+02 -0.2568960E-01  0.3383440E+00 -0.9604821E+00 -0.1939134E+00  0.2772621E+00
  0.1061210E+02  0.1293090E+02 -0.2568960E-01  0.3227171E+00 -0.9811841E+00 -0.1794432E+00  0.2682284E+00
  0.9293580E+01  0.1390880E+02 -0.2568960E-01  0.3011909E+00 -0.1005748E+01 -0.1612746E+00  0.2543746E+00
  0.7885520E+01  0.1475280E+02 -0.2568960E-01  0.2772771E+00 -0.1035066E+01 -0.1415415E+00  0.2384295E+00
  0.6401530E+01  0.1545470E+02 -0.2568960E-01  0.2446997E+00 -0.1072952E+01 -0.1168521E+00  0.2149965E+00
  0.4855880E+01  0.1600770E+02 -0.2568960E-01  0.1973988E+00 -0.1131350E+01 -0.8398103E-01  0.1786434E+00
  0.3263470E+01  0.1640660E+02 -0.2568960E-01  0.1259205E+00 -0.1271248E+01 -0.3715772E-01  0.1203132E+00
  0.1639630E+01  0.1664750E+02 -0.2568960E-01  0.4556311E-01 -0.2204806E+01  0.2699068E-01  0.3670831E-01
 -0.7312040E-06  0.1672800E+02 -0.2568960E-01  0.9202502E-01  0.2745103E+01  0.8488592E-01 -0.3553851E-01
 -0.1639630E+01  0.1664750E+02 -0.2568960E-01  0.1601094E+00  0.2535035E+01  0.1315482E+00 -0.9126920E-01
 -0.3263470E+01  0.1640660E+02 -0.2568960E-01  0.2144476E+00  0.2466544E+01  0.1674142E+00 -0.1340159E+00
 -0.4855880E+01  0.1600770E+02 -0.2568960E-01  0.2444839E+00  0.2447211E+01  0.1878736E+00 -0.1564477E+00
 -0.6401530E+01  0.1545470E+02 -0.2568960E-01  0.2637031E+00  0.2442754E+01  0.2018885E+00 -0.1696478E+00
 -0.7885530E+01  0.1475280E+02 -0.2568960E-01  0.2746266E+00  0.2447648E+01  0.2111134E+00 -0.1756442E+00
 -0.9293580E+01  0.1390880E+02 -0.2568960E-01  0.2814749E+00  0.2455820E+01  0.2178419E+00 -0.1782500E+00
 -0.1061210E+02  0.1293090E+02 -0.2568960E-01  0.2885780E+00  0.2461972E+01  0.2244591E+00 -0.1813708E+00
 -0.1182850E+02  0.1182850E+02 -0.2568960E-01  0.2920158E+00  0.2470210E+01  0.2286374E+00 -0.1816539E+00
 -0.1293090E+02  0.1061210E+02 -0.2568960E-01  0.2943726E+00  0.2477827E+01  0.2318708E+00 -0.1813593E+00
 -0.1390880E+02  0.9293580E+01 -0.2568960E-01  0.2963636E+00  0.2483269E+01  0.2344292E+00 -0.1813128E+00
 -0.1475280E+02  0.7885520E+01 -0.2568960E-01  0.2938820E+00  0.2492124E+01  0.2340491E+00 -0.1777291E+00
 -0.1545470E+02  0.6401530E+01 -0.2568960E-01  0.2892768E+00  0.2501474E+01  0.2320072E+00 -0.1727822E+00
 -0.1600770E+02  0.4855880E+01 -0.2568960E-01  0.2845345E+00  0.2507461E+01  0.2292172E+00 -0.1685805E+00
 -0.1640660E+02  0.3263470E+01 -0.2568960E-01  0.2802247E+00  0.2507886E+01  0.2258158E+00 -0.1659310E+00
 -0.1664750E+02  0.1639630E+01 -0.2568960E-01  0.2757064E+00  0.2504552E+01  0.2216292E+00 -0.1639955E+00
 -0.1672800E+02 -0.1462410E-05 -0.2568960E-01  0.2702423E+00  0.2499291E+01  0.2163881E+00 -0.1618860E+00
 -0.1664750E+02 -0.1639630E+01 -0.2568960E-01  0.2637448E+00  0.2492708E+01  0.2101408E+00 -0.1593806E+00
 -0.1640660E+02 -0.3263470E+01 -0.2568960E-01  0.2562517E+00  0.2484835E+01  0.2029452E+00 -0.1564550E+00
 -0.1600770E+02 -0.4855890E+01 -0.2568960E-01  0.2484304E+00  0.2470671E+01  0.1945829E+00 -0.1544511E+00
 -0.1545470E+02 -0.6401530E+01 -0.2568960E-01  0.2407382E+00  0.2448301E+01  0.1851629E+00 -0.1538492E+00
 -0.1475280E+02 -0.7885530E+01 -0.2568960E-01  0.2325231E+00  0.2420819E+01  0.1746935E+00 -0.1534574E+00
 -0.1390880E+02 -0.9293580E+01 -0.2568960E-01  0.2222195E+00  0.2396315E+01  0.1633091E+00 -0.1507039E+00
 -0.1293090E+02 -0.1061210E+02 -0.2568960E-01  0.2080347E+00  0.2384380E+01  0.1511900E+00 -0.1428987E+00
 -0.1182850E+02 -0.1182850E+02 -0.2568960E-01  0.1933950E+00  0.2366981E+01  0.1382179E+00 -0.1352680E+00
 -0.1061210E+02 -0.1293090E+02 -0.2568960E-01  0.1773285E+00  0.2348837E+01  0.1244642E+00 -0.1263094E+00
 -0.9293580E+01 -0.1390880E+02 -0.2568960E-01  0.1575644E+00  0.2346035E+01  0.1102772E+00 -0.1125410E+00
 -0.7885520E+01 -0.1475280E+02 -0.2568960E-01  0.1360828E+00  0.2351252E+01  0.9574828E-01 -0.9669950E-01
 -0.6401520E+01 -0.1545470E+02 -0.2568960E-01  0.1096666E+00  0.2407516E+01  0.8142196E-01 -0.7346585E-01
 -0.4855880E+01 -0.1600770E+02 -0.2568960E-01  0.7730502E-01  0.2635580E+01  0.6761745E-01 -0.3746926E-01
 -0.3263470E+01 -0.1640660E+02 -0.2568960E-01  0.5986546E-01 -0.2797669E+01  0.5635968E-01  0.2018563E-01
 -0.1639630E+01 -0.1664750E+02 -0.2568960E-01  0.1131158E+00 -0.1993802E+01  0.4643434E-01  0.1031457E+00
  0.1994790E-06 -0.1672800E+02 -0.2568960E-01  0.1782145E+00 -0.1742123E+01  0.3038378E-01  0.1756053E+00
  0.1639640E+01 -0.1664750E+02 -0.2568960E-01  0.2326532E+00 -0.1590824E+01  0.4659219E-02  0.2326065E+00
  0.3263470E+01 -0.1640660E+02 -0.2568960E-01  0.2789379E+00 -0.1465022E+01 -0.2944945E-01  0.2773789E+00
  0.4855890E+01 -0.1600770E+02 -0.2568960E-01  0.3079338E+00 -0.1366699E+01 -0.6241303E-01  0.3015424E+00
  0.6401530E+01 -0.1545470E+02 -0.2568960E-01  0.3285823E+00 -0.1292266E+01 -0.9034151E-01  0.3159189E+00
  0.7885520E+01 -0.1475280E+02 -0.2568960E-01  0.3425961E+00 -0.1228685E+01 -0.1149332E+00  0.3227420E+00
  0.9293580E+01 -0.1390880E+02 -0.2568960E-01  0.3533888E+00 -0.1173548E+01 -0.1367198E+00  0.3258701E+00
  0.1061210E+02 -0.1293090E+02 -0.2568960E-01  0.3643802E+00 -0.1128082E+01 -0.1560983E+00  0.3292510E+00
  0.1182850E+02 -0.1182850E+02 -0.2568960E-01  0.3723538E+00 -0.1086820E+01 -0.1732572E+00  0.3295896E+00
  0.1293090E+02 -0.1061210E+02 -0.2568960E-01  0.3793302E+00 -0.1050787E+01 -0.1884847E+00  0.3291883E+00
  0.1390880E+02 -0.9293580E+01 -0.2568960E-01  0.3860374E+00 -0.1019844E+01 -0.2020901E+00  0.3289141E+00
  0.1475280E+02 -0.7885520E+01 -0.2568960E-01  0.3887853E+00 -0.9897307E+00 -0.2134101E+00  0.3249772E+00
  0.1545470E+02 -0.6401530E+01 -0.2568960E-01  0.3893918E+00 -0.9624396E+00 -0.2225451E+00  0.3195303E+00
  0.1600770E+02 -0.4855880E+01 -0.2568960E-01  0.3896814E+00 -0.9402567E+00 -0.2297486E+00  0.3147493E+00
  0.1640660E+02 -0.3263470E+01 -0.2568960E-01  0.3903931E+00 -0.9239293E+00 -0.2352857E+00  0.3115243E+00
  0.1664750E+02 -0.1639620E+01 -0.2568960E-01  0.3907506E+00 -0.9122329E+00 -0.2391321E+00  0.3090338E+00
  0.1672800E+02  0.0000000E+00 -0.1027320E+00  0.3883683E+00 -0.9042745E+00 -0.2401111E+00  0.3052485E+00
  0.1664750E+02  0.1639630E+01 -0.1027320E+00  0.3859523E+00 -0.8993808E+00 -0.2400990E+00  0.3021782E+00
  0.1640660E+02  0.3263470E+01 -0.1027320E+00  0.3820388E+00 -0.8975770E+00 -0.2382035E+00  0.2986850E+00
  0.1600770E+02  0.4855880E+01 -0.1027320E+00  0.3781979E+00 -0.8998676E+00 -0.2351308E+00  0.2962214E+00
  0.1545470E+02  0.6401530E+01 -0.1027320E+00  0.3749735E+00 -0.9067171E+00 -0.2311090E+00  0.2952859E+00
  0.1475280E+02  0.7885530E+01 -0.1027320E+00  0.3712187E+00 -0.9170220E+00 -0.2257703E+00  0.2946712E+00
  0.1390880E+02  0.9293580E+01 -0.1027320E+00  0.3641458E+00 -0.9293465E+00 -0.2178894E+00  0.2917642E+00
  0.1293090E+02  0.1061210E+02 -0.1027320E+00  0.3507491E+00 -0.9430686E+00 -0.2059975E+00  0.2838838E+00
  0.1182850E+02  0.1182850E+02 -0.1027320E+00  0.3370192E+00 -0.9605119E+00 -0.1931459E+00  0.2761822E+00
  0.1061210E+02  0.1293090E+02 -0.1027320E+00  0.3214291E+00 -0.9812158E+00 -0.1787186E+00  0.2671635E+00
  0.9293580E+01  0.1390880E+02 -0.1027320E+00  0.3000484E+00 -0.1005767E+01 -0.1606580E+00  0.2534128E+00
  0.7885520E+01  0.1475280E+02 -0.1027320E+00  0.2761977E+00 -0.1035087E+01 -0.1409854E+00  0.2375042E+00
  0.6401530E+01  0.1545470E+02 -0.1027320E+00  0.2437584E+00 -0.1072958E+01 -0.1164012E+00  0.2141703E+00
  0.4855880E+01  0.1600770E+02 -0.1027320E+00  0.1966932E+00 -0.1131304E+01 -0.8368906E-01  0.1780010E+00
  0.3263470E+01  0.1640660E+02 -0.1027320E+00  0.1254224E+00 -0.1271265E+01 -0.3700867E-01  0.1198380E+00
  0.1639630E+01  0.1664750E+02 -0.1027320E+00  0.4535639E-01 -0.2206031E+01  0.2691294E-01  0.3650884E-01
 -0.7312040E-06  0.1672800E+02 -0.1027320E+00  0.9172887E-01  0.2744587E+01  0.8459447E-01 -0.3546776E-01
 -0.1639630E+01  0.1664750E+02 -0.1027320E+00  0.1595961E+00  0.2534719E+01  0.1310978E+00 -0.9101802E-01
 -0.3263470E+01  0.1640660E+02 -0.1027320E+00  0.2136580E+00  0.2466422E+01  0.1667816E+00 -0.1335427E+00
 -0.4855880E+01  0.1600770E+02 -0.1027320E+00  0.2436253E+00  0.2447046E+01  0.1871880E+00 -0.1559293E+00
 -0.6401530E+01  0.1545470E+02 -0.1027320E+00  0.2627023E+00  0.2442670E+01  0.2011079E+00 -0.1690209E+00
 -0.7885530E+01  0.1475280E+02 -0.1027320E+00  0.2735851E+00  0.2447547E+01  0.2102952E+00 -0.1749993E+00
 -0.9293580E+01  0.1390880E+02 -0.1027320E+00  0.2804282E+00  0.2455697E+01  0.2170099E+00 -0.1776139E+00
 -0.1061210E+02  0.1293090E+02 -0.1027320E+00  0.2874528E+00  0.2461904E+01  0.2235718E+00 -0.1806787E+00
 -0.1182850E+02  0.1182850E+02 -0.1027320E+00  0.2908845E+00  0.2470136E+01  0.2277382E+00 -0.1809671E+00
 -0.1293090E+02  0.1061210E+02 -0.1027320E+00  0.2932170E+00  0.2477761E+01  0.2309486E+00 -0.1806626E+00
 -0.1390880E+02  0.9293580E+01 -0.1027320E+00  0.2951535E+00  0.2483253E+01  0.2334691E+00 -0.1805762E+00
 -0.1475280E+02  0.7885520E+01 -0.1027320E+00  0.2927105E+00  0.2492061E+01  0.2331050E+00 -0.1770352E+00
 -0.1545470E+02  0.6401530E+01 -0.1027320E+00  0.2881771E+00  0.2501315E+01  0.2310979E+00 -0.1721622E+00
 -0.1600770E+02  0.4855880E+01 -0.1027320E+00  0.2834896E+00  0.2507222E+01  0.2283352E+00 -0.1680160E+00
 -0.1640660E+02  0.3263470E+01 -0.1027320E+00  0.2792079E+00  0.2507612E+01  0.2249511E+00 -0.1653905E+00
 -0.1664750E+02  0.1639630E+01 -0.1027320E+00  0.2747051E+00  0.2504266E+01  0.2207776E+00 -0.1634629E+00
 -0.1672800E+02 -0.1462410E-05 -0.1027320E+00  0.2692586E+00  0.2498990E+01  0.2155519E+00 -0.1613617E+00
 -0.1664750E+02 -0.1639630E+01 -0.1027320E+00  0.2627854E+00  0.2492382E+01  0.2093247E+00 -0.1588690E+00
 -0.1640660E+02 -0.3263470E+01 -0.1027320E+00  0.2553220E+00  0.2484478E+01  0.2021532E+00 -0.1559596E+00
 -0.1600770E+02 -0.4855890E+01 -0.1027320E+00  0.2475201E+00  0.2470346E+01  0.1938199E+00 -0.1539482E+00
 -0.1545470E+02 -0.6401530E+01 -0.1027320E+00  0.2398253E+00  0.2448104E+01  0.1844306E+00 -0.1533020E+00
 -0.1475280E+02 -0.7885530E+01 -0.1027320E+00  0.2316010E+00  0.2420805E+01  0.1739987E+00 -0.1528512E+00
 -0.1390880E+02 -0.9293580E+01 -0.1027320E+00  0.2213179E+00  0.2396389E+01  0.1626575E+00 -0.1500804E+00
 -0.1293090E+02 -0.1061210E+02 -0.1027320E+00  0.2072295E+00  0.2384236E+01  0.1505843E+00 -0.1423673E+00
 -0.1182850E+02 -0.1182850E+02 -0.1027320E+00  0.1926545E+00  0.2366808E+01  0.1376654E+00 -0.1347738E+00
 -0.1061210E+02 -0.1293090E+02 -0.1027320E+00  0.1766425E+00  0.2348753E+01  0.1239722E+00 -0.1258311E+00
 -0.9293580E+01 -0.1390880E+02 -0.1027320E+00  0.1569907E+00  0.2345727E+01  0.1098412E+00 -0.1121650E+00
 -0.7885520E+01 -0.1475280E+02 -0.1027320E+00  0.1355788E+00  0.2351058E+01  0.9537493E-01 -0.9635987E-01
 -0.6401520E+01 -0.1545470E+02 -0.1027320E+00  0.1092678E+00  0.2407199E+01  0.8110264E-01 -0.7322442E-01
 -0.4855880E+01 -0.1600770E+02 -0.1027320E+00  0.7705004E-01  0.2634610E+01  0.6735818E-01 -0.3741102E-01
 -0.3263470E+01 -0.1640660E+02 -0.1027320E+00  0.5963565E-01 -0.2798199E+01  0.5615398E-01  0.2007841E-01
 -0.1639630E+01 -0.1664750E+02 -0.1027320E+00  0.1127091E+00 -0.1994082E+01  0.4629621E-01  0.1027618E+00
  0.1994790E-06 -0.1672800E+02 -0.1027320E+00  0.1775569E+00 -0.1742332E+01  0.3030813E-01  0.1749510E+00
  0.1639640E+01 -0.1664750E+02 -0.1027320E+00  0.2318138E+00 -0.1591060E+01  0.4697113E-02  0.2317662E+00
  0.3263470E+01 -0.1640660E+02 -0.1027320E+00  0.2778628E+00 -0.1465099E+01 -0.2931458E-01  0.2763121E+00
  0.4855890E+01 -0.1600770E+02 -0.1027320E+00  0.3067857E+00 -0.1366804E+01 -0.6214882E-01  0.3004247E+00
  0.6401530E+01 -0.1545470E+02 -0.1027320E+00  0.3272967E+00 -0.1292329E+01 -0.8996822E-01  0.3146885E+00
  0.7885520E+01 -0.1475280E+02 -0.1027320E+00  0.3412573E+00 -0.1228761E+01 -0.1144595E+00  0.3214896E+00
  0.9293580E+01 -0.1390880E+02 -0.1027320E+00  0.3520248E+00 -0.1173643E+01 -0.1361613E+00  0.3246253E+00
  0.1061210E+02 -0.1293090E+02 -0.1027320E+00  0.3629286E+00 -0.1128138E+01 -0.1554581E+00  0.3279481E+00
  0.1182850E+02 -0.1182850E+02 -0.1027320E+00  0.3708768E+00 -0.1086878E+01 -0.1725509E+00  0.3282922E+00
  0.1293090E+02 -0.1061210E+02 -0.1027320E+00  0.3778159E+00 -0.1050827E+01 -0.1877191E+00  0.3278817E+00
  0.1390880E+02 -0.9293580E+01 -0.1027320E+00  0.3844570E+00 -0.1019845E+01 -0.2012625E+00  0.3275676E+00
  0.1475280E+02 -0.7885520E+01 -0.1027320E+00  0.3872209E+00 -0.9897556E+00 -0.2125433E+00  0.3236748E+00
  0.1545470E+02 -0.6401530E+01 -0.1027320E+00  0.3878759E+00 -0.9625192E+00 -0.2216534E+00  0.3183041E+00
  0.1600770E+02 -0.4855880E+01 -0.1027320E+00  0.3882020E+00 -0.9403800E+00 -0.2288377E+00  0.3135826E+00
  0.1640660E+02 -0.3263470E+01 -0.1027320E+00  0.3889246E+00 -0.9240631E+00 -0.2343592E+00  0.3103839E+00
  0.1664750E+02 -0.1639620E+01 -0.1027320E+00  0.3892806E+00 -0.9123655E+00 -0.2381917E+00  0.3079028E+00
  0.1672800E+02  0.0000000E+00 -0.2310450E+00  0.3859383E+00 -0.9044899E+00 -0.2385433E+00  0.3033900E+00
  0.1664750E+02  0.1639630E+01 -0.2310450E+00  0.3835491E+00 -0.8995796E+00 -0.2385443E+00  0.3003441E+00
  0.1640660E+02  0.3263470E+01 -0.2310450E+00  0.3796752E+00 -0.8977660E+00 -0.2366737E+00  0.2968818E+00
  0.1600770E+02  0.4855880E+01 -0.2310450E+00  0.3758339E+00 -0.9000267E+00 -0.2336143E+00  0.2944070E+00
  0.1545470E+02  0.6401530E+01 -0.2310450E+00  0.3725471E+00 -0.9068247E+00 -0.2295820E+00  0.2933998E+00
  0.1475280E+02  0.7885530E+01 -0.2310450E+00  0.3687046E+00 -0.9170760E+00 -0.2242255E+00  0.2926876E+00
  0.1390880E+02  0.9293580E+01 -0.2310450E+00  0.3616277E+00 -0.9293819E+00 -0.2163724E+00  0.2897543E+00
  0.1293090E+02  0.1061210E+02 -0.2310450E+00  0.3484384E+00 -0.9431303E+00 -0.2046230E+00  0.2820261E+00
  0.1182850E+02  0.1182850E+02 -0.2310450E+00  0.3348159E+00 -0.9605730E+00 -0.1918664E+00  0.2743883E+00
  0.1061210E+02  0.1293090E+02 -0.2310450E+00  0.3192902E+00 -0.9812572E+00 -0.1775184E+00  0.2653931E+00
  0.9293580E+01  0.1390880E+02 -0.2310450E+00  0.2981492E+00 -0.1005797E+01 -0.1596336E+00  0.2518135E+00
  0.7885520E+01  0.1475280E+02 -0.2310450E+00  0.2744037E+00 -0.1035119E+01 -0.1400620E+00  0.2359661E+00
  0.6401530E+01  0.1545470E+02 -0.2310450E+00  0.2421875E+00 -0.1072968E+01 -0.1156490E+00  0.2127913E+00
  0.4855880E+01  0.1600770E+02 -0.2310450E+00  0.1955178E+00 -0.1131221E+01 -0.8320367E-01  0.1769304E+00
  0.3263470E+01  0.1640660E+02 -0.2310450E+00  0.1245885E+00 -0.1271287E+01 -0.3676005E-01  0.1190420E+00
  0.1639630E+01  0.1664750E+02 -0.2310450E+00  0.4503467E-01 -0.2206917E+01  0.2675416E-01  0.3622618E-01
 -0.7312040E-06  0.1672800E+02 -0.2310450E+00  0.9121578E-01  0.2743786E+01  0.8409300E-01 -0.3533676E-01
 -0.1639630E+01  0.1664750E+02 -0.2310450E+00  0.1587318E+00  0.2534191E+01  0.1303401E+00 -0.9059392E-01
 -0.3263470E+01  0.1640660E+02 -0.2310450E+00  0.2123368E+00  0.2466211E+01  0.1657222E+00 -0.1327519E+00
 -0.4855880E+01  0.1600770E+02 -0.2310450E+00  0.2421975E+00  0.2446753E+01  0.1860456E+00 -0.1550698E+00
 -0.6401530E+01  0.1545470E+02 -0.2310450E+00  0.2610373E+00  0.2442522E+01  0.1998086E+00 -0.1679793E+00
 -0.7885530E+01  0.1475280E+02 -0.2310450E+00  0.2718600E+00  0.2447380E+01  0.2089402E+00 -0.1739307E+00
 -0.9293580E+01  0.1390880E+02 -0.2310450E+00  0.2786915E+00  0.2455480E+01  0.2156277E+00 -0.1765606E+00
 -0.1061210E+02  0.1293090E+02 -0.2310450E+00  0.2855839E+00  0.2461782E+01  0.2220962E+00 -0.1795313E+00
 -0.1182850E+02  0.1182850E+02 -0.2310450E+00  0.2890056E+00  0.2470002E+01  0.2262431E+00 -0.1798285E+00
 -0.1293090E+02  0.1061210E+02 -0.2310450E+00  0.2912998E+00  0.2477647E+01  0.2294180E+00 -0.1795075E+00
 -0.1390880E+02  0.9293580E+01 -0.2310450E+00  0.2931454E+00  0.2483225E+01  0.2318757E+00 -0.1793540E+00
 -0.1475280E+02  0.7885520E+01 -0.2310450E+00  0.2907653E+00  0.2491956E+01  0.2315374E+00 -0.1758830E+00
 -0.1545470E+02  0.6401530E+01 -0.2310450E+00  0.2863519E+00  0.2501050E+01  0.2295889E+00 -0.1711326E+00
 -0.1600770E+02  0.4855880E+01 -0.2310450E+00  0.2817563E+00  0.2506819E+01  0.2268719E+00 -0.1670800E+00
 -0.1640660E+02  0.3263470E+01 -0.2310450E+00  0.2775210E+00  0.2507154E+01  0.2235165E+00 -0.1644939E+00
 -0.1664750E+02  0.1639630E+01 -0.2310450E+00  0.2730438E+00  0.2503791E+01  0.2193653E+00 -0.1625787E+00
 -0.1672800E+02 -0.1462410E-05 -0.2310450E+00  0.2676293E+00  0.2498493E+01  0.2141680E+00 -0.1604916E+00
 -0.1664750E+02 -0.1639630E+01 -0.2310450E+00  0.2611966E+00  0.2491850E+01  0.2079751E+00 -0.1580191E+00
 -0.1640660E+02 -0.3263470E+01 -0.2310450E+00  0.2537802E+00  0.2483890E+01  0.2008413E+00 -0.1551359E+00
 -0.1600770E+02 -0.4855890E+01 -0.2310450E+00  0.2460102E+00  0.2469818E+01  0.1925566E+00 -0.1531109E+00
 -0.1545470E+02 -0.6401530E+01 -0.2310450E+00  0.2383131E+00  0.2447799E+01  0.1832213E+00 -0.1523913E+00
 -0.1475280E+02 -0.7885530E+01 -0.2310450E+00  0.2300718E+00  0.2420803E+01  0.1728494E+00 -0.1518424E+00
 -0.1390880E+02 -0.9293580E+01 -0.2310450E+00  0.2198217E+00  0.2396525E+01  0.1615781E+00 -0.1490439E+00
 -0.1293090E+02 -0.1061210E+02 -0.2310450E+00  0.2058936E+00  0.2384022E+01  0.1495833E+00 -0.1414815E+00
 -0.1182850E+02 -0.1182850E+02 -0.2310450E+00  0.1914266E+00  0.2366539E+01  0.1367520E+00 -0.1339516E+00
 -0.1061210E+02 -0.1293090E+02 -0.2310450E+00  0.1755009E+00  0.2348644E+01  0.1231573E+00 -0.1250313E+00
 -0.9293580E+01 -0.1390880E+02 -0.2310450E+00  0.1560368E+00  0.2345238E+01  0.1091192E+00 -0.1115369E+00
 -0.7885520E+01 -0.1475280E+02 -0.2310450E+00  0.1347397E+00  0.2350750E+01  0.9475525E-01 -0.9579267E-01
 -0.6401520E+01 -0.1545470E+02 -0.2310450E+00  0.1085993E+00  0.2406720E+01  0.8057161E-01 -0.7281505E-01
 -0.4855880E+01 -0.1600770E+02 -0.2310450E+00  0.7662562E-01  0.2633056E+01  0.6692926E-01 -0.3730899E-01
 -0.3263470E+01 -0.1640660E+02 -0.2310450E+00  0.5925525E-01 -0.2798922E+01  0.5581019E-01  0.1990997E-01
 -0.1639630E+01 -0.1664750E+02 -0.2310450E+00  0.1119870E+00 -0.1994598E+01  0.4605227E-01  0.1020798E+00
  0.1994790E-06 -0.1672800E+02 -0.2310450E+00  0.1764531E+00 -0.1742614E+01  0.3016875E-01  0.1738550E+00
  0.1639640E+01 -0.1664750E+02 -0.2310450E+00  0.2304167E+00 -0.1591344E+01  0.4734241E-02  0.2303681E+00
  0.3263470E+01 -0.1640660E+02 -0.2310450E+00  0.2760744E+00 -0.1465235E+01 -0.2908858E-01  0.2745377E+00
  0.4855890E+01 -0.1600770E+02 -0.2310450E+00  0.3048824E+00 -0.1366976E+01 -0.6171198E-01  0.2985714E+00
  0.6401530E+01 -0.1545470E+02 -0.2310450E+00  0.3251638E+00 -0.1292421E+01 -0.8935290E-01  0.3126461E+00
  0.7885520E+01 -0.1475280E+02 -0.2310450E+00  0.3390408E+00 -0.1228880E+01 -0.1136781E+00  0.3194150E+00
  0.9293580E+01 -0.1390880E+02 -0.2310450E+00  0.3497647E+00 -0.1173800E+01 -0.1352366E+00  0.3225622E+00
  0.1061210E+02 -0.1293090E+02 -0.2310450E+00  0.3605247E+00 -0.1128223E+01 -0.1544006E+00  0.3257891E+00
  0.1182850E+02 -0.1182850E+02 -0.2310450E+00  0.3684320E+00 -0.1086960E+01 -0.1713865E+00  0.3261423E+00
  0.1293090E+02 -0.1061210E+02 -0.2310450E+00  0.3753077E+00 -0.1050887E+01 -0.1864535E+00  0.3257161E+00
  0.1390880E+02 -0.9293580E+01 -0.2310450E+00  0.3818404E+00 -0.1019832E+01 -0.1998970E+00  0.3253357E+00
  0.1475280E+02 -0.7885520E+01 -0.2310450E+00  0.3846276E+00 -0.9897983E+00 -0.2111061E+00  0.3215161E+00
  0.1545470E+02 -0.6401530E+01 -0.2310450E+00  0.3853615E+00 -0.9626589E+00 -0.2201724E+00  0.3162715E+00
  0.1600770E+02 -0.4855880E+01 -0.2310450E+00  0.3857491E+00 -0.9405838E+00 -0.2273283E+00  0.3116476E+00
  0.1640660E+02 -0.3263470E+01 -0.2310450E+00  0.3864879E+00 -0.9242909E+00 -0.2328206E+00  0.3084923E+00
  0.1664750E+02 -0.1639620E+01 -0.2310450E+00  0.3868431E+00 -0.9125904E+00 -0.2366313E+00  0.3060280E+00
  0.1672800E+02  0.0000000E+00 -0.4105000E+00  0.3825915E+00 -0.9048031E+00 -0.2363805E+00  0.3008330E+00
  0.1664750E+02  0.1639630E+01 -0.4105000E+00  0.3802349E+00 -0.8998809E+00 -0.2363933E+00  0.2978201E+00
  0.1640660E+02  0.3263470E+01 -0.4105000E+00  0.3764149E+00 -0.8980506E+00 -0.2345576E+00  0.2943992E+00
  0.1600770E+02  0.4855880E+01 -0.4105000E+00  0.3725715E+00 -0.9002691E+00 -0.2315156E+00  0.2919076E+00
  0.1545470E+02  0.6401530E+01 -0.4105000E+00  0.3691963E+00 -0.9069890E+00 -0.2274693E+00  0.2907983E+00
  0.1475280E+02  0.7885530E+01 -0.4105000E+00  0.3652291E+00 -0.9171610E+00 -0.2220872E+00  0.2899475E+00
  0.1390880E+02  0.9293580E+01 -0.4105000E+00  0.3581435E+00 -0.9294358E+00 -0.2142723E+00  0.2869741E+00
  0.1293090E+02  0.1061210E+02 -0.4105000E+00  0.3452379E+00 -0.9432180E+00 -0.2027189E+00  0.2794534E+00
  0.1182850E+02  0.1182850E+02 -0.4105000E+00  0.3317635E+00 -0.9606472E+00 -0.1900970E+00  0.2719010E+00
  0.1061210E+02  0.1293090E+02 -0.4105000E+00  0.3163220E+00 -0.9813257E+00 -0.1758501E+00  0.2629380E+00
  0.9293580E+01  0.1390880E+02 -0.4105000E+00  0.2955102E+00 -0.1005846E+01 -0.1582085E+00  0.2495924E+00
  0.7885520E+01  0.1475280E+02 -0.4105000E+00  0.2719091E+00 -0.1035170E+01 -0.1387769E+00  0.2338280E+00
  0.6401530E+01  0.1545470E+02 -0.4105000E+00  0.2400133E+00 -0.1072970E+01 -0.1146104E+00  0.2108811E+00
  0.4855880E+01  0.1600770E+02 -0.4105000E+00  0.1938663E+00 -0.1131112E+01 -0.8252004E-01  0.1754269E+00
  0.3263470E+01  0.1640660E+02 -0.4105000E+00  0.1234254E+00 -0.1271321E+01 -0.3641279E-01  0.1179319E+00
  0.1639630E+01  0.1664750E+02 -0.4105000E+00  0.4461562E-01 -0.2206545E+01  0.2649187E-01  0.3589894E-01
 -0.7312040E-06  0.1672800E+02 -0.4105000E+00  0.9047213E-01  0.2742911E+01  0.8337673E-01 -0.3512162E-01
 -0.1639630E+01  0.1664750E+02 -0.4105000E+00  0.1575089E+00  0.2533498E+01  0.1292735E+00 -0.8998562E-01
 -0.3263470E+01  0.1640660E+02 -0.4105000E+00  0.2104838E+00  0.2465944E+01  0.1642407E+00 -0.1316373E+00
 -0.4855880E+01  0.1600770E+02 -0.4105000E+00  0.2401950E+00  0.2446373E+01  0.1844489E+00 -0.1538579E+00
 -0.6401530E+01  0.1545470E+02 -0.4105000E+00  0.2587240E+00  0.2442314E+01  0.1980032E+00 -0.1665319E+00
 -0.7885530E+01  0.1475280E+02 -0.4105000E+00  0.2694538E+00  0.2447136E+01  0.2070486E+00 -0.1724419E+00
 -0.9293580E+01  0.1390880E+02 -0.4105000E+00  0.2762742E+00  0.2455174E+01  0.2137039E+00 -0.1750945E+00
 -0.1061210E+02  0.1293090E+02 -0.4105000E+00  0.2829875E+00  0.2461597E+01  0.2200442E+00 -0.1779396E+00
 -0.1182850E+02  0.1182850E+02 -0.4105000E+00  0.2863970E+00  0.2469796E+01  0.2241642E+00 -0.1782515E+00