 VARIABLES="X" "Y" "Z" "abs(eta) (m)" "angle(phi) (rad)" "PRE1" "PRE2"
ZONE N=   3200 ,E =    3136 ,F=FEPOINT,ET=QUADRILATERAL
  0.1672800E+02  0.0000000E+00  0.0000000E+00  0.7037903E-01  0.2034813E+01  0.3149766E-01 -0.6293730E-01
  0.1664750E+02  0.1639630E+01  0.0000000E+00  0.7311827E-01  0.2035199E+01  0.3274887E-01 -0.6537425E-01
  0.1640660E+02  0.3263470E+01  0.0000000E+00  0.7595021E-01  0.2035277E+01  0.3402257E-01 -0.6790360E-01
  0.1600770E+02  0.4855880E+01  0.0000000E+00  0.7890390E-01  0.2035130E+01  0.3533531E-01 -0.7054957E-01
  0.1545470E+02  0.6401530E+01  0.0000000E+00  0.8186102E-01  0.2035429E+01  0.3668145E-01 -0.7318264E-01
  0.1475280E+02  0.7885530E+01  0.0000000E+00  0.8388526E-01  0.2039215E+01  0.3787219E-01 -0.7484940E-01
  0.1390880E+02  0.9293580E+01  0.0000000E+00  0.8535269E-01  0.2044780E+01  0.3895794E-01 -0.7594314E-01
  0.1293090E+02  0.1061210E+02  0.0000000E+00  0.8693592E-01  0.2049847E+01  0.4007196E-01 -0.7714980E-01
  0.1182850E+02  0.1182850E+02  0.0000000E+00  0.8861485E-01  0.2054697E+01  0.4122678E-01 -0.7844070E-01
  0.1061210E+02  0.1293090E+02  0.0000000E+00  0.9010623E-01  0.2060788E+01  0.4240568E-01 -0.7950403E-01
  0.9293580E+01  0.1390880E+02  0.0000000E+00  0.9170335E-01  0.2067758E+01  0.4372020E-01 -0.8061047E-01
  0.7885520E+01  0.1475280E+02  0.0000000E+00  0.9357694E-01  0.2075243E+01  0.4522794E-01 -0.8192116E-01
  0.6401530E+01  0.1545470E+02  0.0000000E+00  0.9434211E-01  0.2087918E+01  0.4664086E-01 -0.8200649E-01
  0.4855880E+01  0.1600770E+02  0.0000000E+00  0.9416788E-01  0.2107265E+01  0.4812962E-01 -0.8093905E-01
  0.3263470E+01  0.1640660E+02  0.0000000E+00  0.9200252E-01  0.2139106E+01  0.4951654E-01 -0.7754080E-01
  0.1639630E+01  0.1664750E+02  0.0000000E+00  0.8238027E-01  0.2202336E+01  0.4863635E-01 -0.6649072E-01
 -0.7312040E-06  0.1672800E+02  0.0000000E+00  0.6318165E-01  0.2331631E+01  0.4356540E-01 -0.4575999E-01
 -0.1639630E+01  0.1664750E+02  0.0000000E+00  0.3662182E-01  0.2757344E+01  0.3395136E-01 -0.1372817E-01
 -0.3263470E+01  0.1640660E+02  0.0000000E+00  0.3361913E-01 -0.2266183E+01  0.2153919E-01  0.2581296E-01
 -0.4855880E+01  0.1600770E+02  0.0000000E+00  0.5566482E-01 -0.1798791E+01  0.1258163E-01  0.5422429E-01
 -0.6401530E+01  0.1545470E+02  0.0000000E+00  0.7211658E-01 -0.1668056E+01  0.7002995E-02  0.7177576E-01
 -0.7885530E+01  0.1475280E+02  0.0000000E+00  0.8388162E-01 -0.1607046E+01  0.3040050E-02  0.8382652E-01
 -0.9293580E+01  0.1390880E+02  0.0000000E+00  0.9189487E-01 -0.1573575E+01  0.2553174E-03  0.9189451E-01
 -0.1061210E+02  0.1293090E+02  0.0000000E+00  0.9901800E-01 -0.1548171E+01 -0.2240090E-02  0.9899266E-01
 -0.1182850E+02  0.1182850E+02  0.0000000E+00  0.1043438E+00 -0.1531209E+01 -0.4129597E-02  0.1042620E+00
 -0.1293090E+02  0.1061210E+02  0.0000000E+00  0.1087707E+00 -0.1518247E+01 -0.5713223E-02  0.1086206E+00
 -0.1390880E+02  0.9293580E+01  0.0000000E+00  0.1131368E+00 -0.1507224E+01 -0.7187558E-02  0.1129083E+00
 -0.1475280E+02  0.7885520E+01  0.0000000E+00  0.1174845E+00 -0.1498163E+01 -0.8525801E-02  0.1171747E+00
 -0.1545470E+02  0.6401530E+01  0.0000000E+00  0.1205279E+00 -0.1493025E+01 -0.9364119E-02  0.1201635E+00
 -0.1600770E+02  0.4855880E+01  0.0000000E+00  0.1221189E+00 -0.1490979E+01 -0.9736881E-02  0.1217301E+00
 -0.1640660E+02  0.3263470E+01  0.0000000E+00  0.1235005E+00 -0.1490521E+01 -0.9903353E-02  0.1231027E+00
 -0.1664750E+02  0.1639630E+01  0.0000000E+00  0.1250562E+00 -0.1491354E+01 -0.9924348E-02  0.1246618E+00
 -0.1672800E+02 -0.1462410E-05  0.0000000E+00  0.1271254E+00 -0.1493268E+01 -0.9845999E-02  0.1267435E+00
 -0.1664750E+02 -0.1639630E+01  0.0000000E+00  0.1295514E+00 -0.1496955E+01 -0.9557555E-02  0.1291983E+00
 -0.1640660E+02 -0.3263470E+01  0.0000000E+00  0.1320499E+00 -0.1502630E+01 -0.8994450E-02  0.1317433E+00
 -0.1600770E+02 -0.4855890E+01  0.0000000E+00  0.1346447E+00 -0.1510455E+01 -0.8119686E-02  0.1343997E+00
 -0.1545470E+02 -0.6401530E+01  0.0000000E+00  0.1372090E+00 -0.1520442E+01 -0.6906088E-02  0.1370350E+00
 -0.1475280E+02 -0.7885530E+01  0.0000000E+00  0.1388019E+00 -0.1531796E+01 -0.5412024E-02  0.1386964E+00
 -0.1390880E+02 -0.9293580E+01  0.0000000E+00  0.1398208E+00 -0.1544862E+01 -0.3625761E-02  0.1397738E+00
 -0.1293090E+02 -0.1061210E+02  0.0000000E+00  0.1409647E+00 -0.1559902E+01 -0.1535636E-02  0.1409563E+00
 -0.1182850E+02 -0.1182850E+02  0.0000000E+00  0.1422185E+00 -0.1576906E+01  0.8689400E-03  0.1422158E+00
 -0.1061210E+02 -0.1293090E+02  0.0000000E+00  0.1432811E+00 -0.1596119E+01  0.3627926E-02  0.1432351E+00
 -0.9293580E+01 -0.1390880E+02  0.0000000E+00  0.1444434E+00 -0.1618428E+01  0.6877420E-02  0.1442796E+00
 -0.7885520E+01 -0.1475280E+02  0.0000000E+00  0.1458965E+00 -0.1643485E+01  0.1059571E-01  0.1455112E+00
 -0.6401520E+01 -0.1545470E+02  0.0000000E+00  0.1462379E+00 -0.1671832E+01  0.1475011E-01  0.1454922E+00
 -0.4855880E+01 -0.1600770E+02  0.0000000E+00  0.1456056E+00 -0.1705577E+01  0.1956546E-01  0.1442851E+00
 -0.3263470E+01 -0.1640660E+02  0.0000000E+00  0.1429295E+00 -0.1748221E+01  0.2522634E-01  0.1406857E+00
 -0.1639630E+01 -0.1664750E+02  0.0000000E+00  0.1328458E+00 -0.1798446E+01  0.2998179E-01  0.1294183E+00
  0.1994790E-06 -0.1672800E+02  0.0000000E+00  0.1129408E+00 -0.1849202E+01  0.3103879E-01  0.1085920E+00
  0.1639640E+01 -0.1664750E+02  0.0000000E+00  0.8155148E-01 -0.1920342E+01  0.2792905E-01  0.7661992E-01
  0.3263470E+01 -0.1640660E+02  0.0000000E+00  0.4335077E-01 -0.2107054E+01  0.2214889E-01  0.3726548E-01
  0.4855890E+01 -0.1600770E+02  0.0000000E+00  0.2065762E-01 -0.2689283E+01  0.1858029E-01  0.9028295E-02
  0.6401530E+01 -0.1545470E+02  0.0000000E+00  0.1935560E-01  0.2692518E+01  0.1743647E-01 -0.8402891E-02
  0.7885520E+01 -0.1475280E+02  0.0000000E+00  0.2679174E-01  0.2278087E+01  0.1740865E-01 -0.2036508E-01
  0.9293580E+01 -0.1390880E+02  0.0000000E+00  0.3367221E-01  0.2139843E+01  0.1814357E-01 -0.2836598E-01
  0.1061210E+02 -0.1293090E+02  0.0000000E+00  0.4020093E-01  0.2064073E+01  0.1903573E-01 -0.3540841E-01
  0.1182850E+02 -0.1182850E+02  0.0000000E+00  0.4542010E-01  0.2033959E+01  0.2029278E-01 -0.4063482E-01
  0.1293090E+02 -0.1061210E+02  0.0000000E+00  0.4989936E-01  0.2019606E+01  0.2165099E-01 -0.4495754E-01
  0.1390880E+02 -0.9293580E+01  0.0000000E+00  0.5430872E-01  0.2007424E+01  0.2296639E-01 -0.4921363E-01
  0.1475280E+02 -0.7885520E+01  0.0000000E+00  0.5869492E-01  0.1996707E+01  0.2424983E-01 -0.5345128E-01
  0.1545470E+02 -0.6401530E+01  0.0000000E+00  0.6200354E-01  0.1998453E+01  0.2571530E-01 -0.5641952E-01
  0.1600770E+02 -0.4855880E+01  0.0000000E+00  0.6406882E-01  0.2010611E+01  0.2727868E-01 -0.5797143E-01
  0.1640660E+02 -0.3263470E+01  0.0000000E+00  0.6594982E-01  0.2022656E+01  0.2879628E-01 -0.5933088E-01
  0.1664750E+02 -0.1639620E+01  0.0000000E+00  0.6796155E-01  0.2031550E+01  0.3021731E-01 -0.6087435E-01
  0.1672800E+02  0.0000000E+00 -0.2568960E-01  0.7033431E-01  0.2034791E+01  0.3147628E-01 -0.6289800E-01
  0.1664750E+02  0.1639630E+01 -0.2568960E-01  0.7306909E-01  0.2035187E+01  0.3272606E-01 -0.6533067E-01
  0.1640660E+02  0.3263470E+01 -0.2568960E-01  0.7589647E-01  0.2035287E+01  0.3399917E-01 -0.6785522E-01
  0.1600770E+02  0.4855880E+01 -0.2568960E-01  0.7884418E-01  0.2035150E+01  0.3530994E-01 -0.7049549E-01
  0.1545470E+02  0.6401530E+01 -0.2568960E-01  0.8179459E-01  0.2035471E+01  0.3665480E-01 -0.7312168E-01
  0.1475280E+02  0.7885530E+01 -0.2568960E-01  0.8382028E-01  0.2039253E+01  0.3784566E-01 -0.7479001E-01
  0.1390880E+02  0.9293580E+01 -0.2568960E-01  0.8529032E-01  0.2044797E+01  0.3893074E-01 -0.7588700E-01
  0.1293090E+02  0.1061210E+02 -0.2568960E-01  0.8687575E-01  0.2049858E+01  0.4004509E-01 -0.7709596E-01
  0.1182850E+02  0.1182850E+02 -0.2568960E-01  0.8855460E-01  0.2054703E+01  0.4119921E-01 -0.7838713E-01
  0.1061210E+02  0.1293090E+02 -0.2568960E-01  0.9004571E-01  0.2060792E+01  0.4237748E-01 -0.7945048E-01
  0.9293580E+01  0.1390880E+02 -0.2568960E-01  0.9164414E-01  0.2067750E+01  0.4369130E-01 -0.8055879E-01
  0.7885520E+01  0.1475280E+02 -0.2568960E-01  0.9351269E-01  0.2075244E+01  0.4519695E-01 -0.8186488E-01
  0.6401530E+01  0.1545470E+02 -0.2568960E-01  0.9428278E-01  0.2087907E+01  0.4661064E-01 -0.8195541E-01
  0.4855880E+01  0.1600770E+02 -0.2568960E-01  0.9411316E-01  0.2107241E+01  0.4809969E-01 -0.8089317E-01
  0.3263470E+01  0.1640660E+02 -0.2568960E-01  0.9194795E-01  0.2139098E+01  0.4948655E-01 -0.7749520E-01
  0.1639630E+01  0.1664750E+02 -0.2568960E-01  0.8233877E-01  0.2202292E+01  0.4860892E-01 -0.6645937E-01
 -0.7312040E-06  0.1672800E+02 -0.2568960E-01  0.6315793E-01  0.2331497E+01  0.4354294E-01 -0.4574862E-01
 -0.1639630E+01  0.1664750E+02 -0.2568960E-01  0.3661451E-01  0.2756789E+01  0.3393697E-01 -0.1374425E-01
 -0.3263470E+01  0.1640660E+02 -0.2568960E-01  0.3358703E-01 -0.2266640E+01  0.2153041E-01  0.2577848E-01
 -0.4855880E+01  0.1600770E+02 -0.2568960E-01  0.5562868E-01 -0.1798762E+01  0.1257187E-01  0.5418947E-01
 -0.6401530E+01  0.1545470E+02 -0.2568960E-01  0.7206975E-01 -0.1668053E+01  0.6998218E-02  0.7172917E-01
 -0.7885530E+01  0.1475280E+02 -0.2568960E-01  0.8382151E-01 -0.1607064E+01  0.3039312E-02  0.8376639E-01
 -0.9293580E+01  0.1390880E+02 -0.2568960E-01  0.9183560E-01 -0.1573555E+01  0.2533471E-03  0.9183525E-01
 -0.1061210E+02  0.1293090E+02 -0.2568960E-01  0.9894699E-01 -0.1548184E+01 -0.2237260E-02  0.9892169E-01
 -0.1182850E+02  0.1182850E+02 -0.2568960E-01  0.1042712E+00 -0.1531211E+01 -0.4126580E-02  0.1041895E+00
 -0.1293090E+02  0.1061210E+02 -0.2568960E-01  0.1086970E+00 -0.1518246E+01 -0.5709460E-02  0.1085470E+00
 -0.1390880E+02  0.9293580E+01 -0.2568960E-01  0.1130567E+00 -0.1507230E+01 -0.7181715E-02  0.1128283E+00
 -0.1475280E+02  0.7885520E+01 -0.2568960E-01  0.1173930E+00 -0.1498185E+01 -0.8516620E-02  0.1170837E+00
 -0.1545470E+02  0.6401530E+01 -0.2568960E-01  0.1204318E+00 -0.1493044E+01 -0.9354387E-02  0.1200680E+00
 -0.1600770E+02  0.4855880E+01 -0.2568960E-01  0.1220272E+00 -0.1490984E+01 -0.9728919E-02  0.1216388E+00
 -0.1640660E+02  0.3263470E+01 -0.2568960E-01  0.1234132E+00 -0.1490526E+01 -0.9895808E-02  0.1230158E+00
 -0.1664750E+02  0.1639630E+01 -0.2568960E-01  0.1249711E+00 -0.1491355E+01 -0.9917391E-02  0.1245769E+00
 -0.1672800E+02 -0.1462410E-05 -0.2568960E-01  0.1270391E+00 -0.1493268E+01 -0.9839215E-02  0.1266575E+00
 -0.1664750E+02 -0.1639630E+01 -0.2568960E-01  0.1294609E+00 -0.1496961E+01 -0.9550060E-02  0.1291081E+00
 -0.1640660E+02 -0.3263470E+01 -0.2568960E-01  0.1319547E+00 -0.1502636E+01 -0.8987115E-02  0.1316483E+00
 -0.1600770E+02 -0.4855890E+01 -0.2568960E-01  0.1345436E+00 -0.1510466E+01 -0.8112095E-02  0.1342988E+00
 -0.1545470E+02 -0.6401530E+01 -0.2568960E-01  0.1371014E+00 -0.1520447E+01 -0.6900103E-02  0.1369276E+00
 -0.1475280E+02 -0.7885530E+01 -0.2568960E-01  0.1386952E+00 -0.1531802E+01 -0.5407005E-02  0.1385898E+00
 -0.1390880E+02 -0.9293580E+01 -0.2568960E-01  0.1397184E+00 -0.1544867E+01 -0.3622364E-02  0.1396714E+00
 -0.1293090E+02 -0.1061210E+02 -0.2568960E-01  0.1408645E+00 -0.1559916E+01 -0.1532600E-02  0.1408561E+00
 -0.1182850E+02 -0.1182850E+02 -0.2568960E-01  0.1421181E+00 -0.1576919E+01  0.8701496E-03  0.1421155E+00
 -0.1061210E+02 -0.1293090E+02 -0.2568960E-01  0.1431808E+00 -0.1596132E+01  0.3627218E-02  0.1431348E+00
 -0.9293580E+01 -0.1390880E+02 -0.2568960E-01  0.1443450E+00 -0.1618438E+01  0.6874187E-02  0.1441813E+00
 -0.7885520E+01 -0.1475280E+02 -0.2568960E-01  0.1457939E+00 -0.1643495E+01  0.1058964E-01  0.1454088E+00
 -0.6401520E+01 -0.1545470E+02 -0.2568960E-01  0.1461404E+00 -0.1671842E+01  0.1474169E-01  0.1453950E+00
 -0.4855880E+01 -0.1600770E+02 -0.2568960E-01  0.1455126E+00 -0.1705591E+01  0.1955495E-01  0.1441927E+00
 -0.3263470E+01 -0.1640660E+02 -0.2568960E-01  0.1428370E+00 -0.1748245E+01  0.2521349E-01  0.1405941E+00
 -0.1639630E+01 -0.1664750E+02 -0.2568960E-01  0.1327669E+00 -0.1798475E+01  0.2996766E-01  0.1293405E+00
  0.1994790E-06 -0.1672800E+02 -0.2568960E-01  0.1128814E+00 -0.1849227E+01  0.3102516E-01  0.1085341E+00
  0.1639640E+01 -0.1664750E+02 -0.2568960E-01  0.8151935E-01 -0.1920339E+01  0.2791781E-01  0.7658982E-01
  0.3263470E+01 -0.1640660E+02 -0.2568960E-01  0.4333496E-01 -0.2106984E+01  0.2213820E-01  0.3725344E-01
  0.4855890E+01 -0.1600770E+02 -0.2568960E-01  0.2064125E-01 -0.2689489E+01  0.1856743E-01  0.9017313E-02
  0.6401530E+01 -0.1545470E+02 -0.2568960E-01  0.1934469E-01  0.2692267E+01  0.1742454E-01 -0.8402523E-02
  0.7885520E+01 -0.1475280E+02 -0.2568960E-01  0.2677339E-01  0.2278098E+01  0.1739695E-01 -0.2035093E-01
  0.9293580E+01 -0.1390880E+02 -0.2568960E-01  0.3365389E-01  0.2139738E+01  0.1813072E-01 -0.2835245E-01
  0.1061210E+02 -0.1293090E+02 -0.2568960E-01  0.4017329E-01  0.2064109E+01  0.1902390E-01 -0.3538339E-01
  0.1182850E+02 -0.1182850E+02 -0.2568960E-01  0.4539054E-01  0.2033946E+01  0.2027905E-01 -0.4060864E-01
  0.1293090E+02 -0.1061210E+02 -0.2568960E-01  0.4986834E-01  0.2019559E+01  0.2163545E-01 -0.4493060E-01
  0.1390880E+02 -0.9293580E+01 -0.2568960E-01  0.5427170E-01  0.2007425E+01  0.2295078E-01 -0.4918007E-01
  0.1475280E+02 -0.7885520E+01 -0.2568960E-01  0.5864813E-01  0.1996772E+01  0.2423397E-01 -0.5340710E-01
  0.1545470E+02 -0.6401530E+01 -0.2568960E-01  0.6195203E-01  0.1998540E+01  0.2569886E-01 -0.5637040E-01
  0.1600770E+02 -0.4855880E+01 -0.2568960E-01  0.6402036E-01  0.2010648E+01  0.2726018E-01 -0.5792658E-01
  0.1640660E+02 -0.3263470E+01 -0.2568960E-01  0.6590462E-01  0.2022650E+01  0.2877616E-01 -0.5929040E-01
  0.1664750E+02 -0.1639620E+01 -0.2568960E-01  0.6791820E-01  0.2031517E+01  0.3019602E-01 -0.6083652E-01
  0.1672800E+02  0.0000000E+00 -0.1027320E+00  0.7020590E-01  0.2034655E+01  0.3141027E-01 -0.6278745E-01
  0.1664750E+02  0.1639630E+01 -0.1027320E+00  0.7292951E-01  0.2035105E+01  0.3265817E-01 -0.6520857E-01
  0.1640660E+02  0.3263470E+01 -0.1027320E+00  0.7574207E-01  0.2035268E+01  0.3392870E-01 -0.6771784E-01
  0.1600770E+02  0.4855880E+01 -0.1027320E+00  0.7867127E-01  0.2035190E+01  0.3523534E-01 -0.7033946E-01
  0.1545470E+02  0.6401530E+01 -0.1027320E+00  0.8160223E-01  0.2035555E+01  0.3657469E-01 -0.7294667E-01
  0.1475280E+02  0.7885530E+01 -0.1027320E+00  0.8362806E-01  0.2039319E+01  0.3776384E-01 -0.7461599E-01
  0.1390880E+02  0.9293580E+01 -0.1027320E+00  0.8511052E-01  0.2044819E+01  0.3885032E-01 -0.7572617E-01
  0.1293090E+02  0.1061210E+02 -0.1027320E+00  0.8669977E-01  0.2049851E+01  0.3996341E-01 -0.7694008E-01
  0.1182850E+02  0.1182850E+02 -0.1027320E+00  0.8837805E-01  0.2054695E+01  0.4111642E-01 -0.7823119E-01
  0.1061210E+02  0.1293090E+02 -0.1027320E+00  0.8986777E-01  0.2060778E+01  0.4229261E-01 -0.7929408E-01
  0.9293580E+01  0.1390880E+02 -0.1027320E+00  0.9147025E-01  0.2067706E+01  0.4360490E-01 -0.8040784E-01
  0.7885520E+01  0.1475280E+02 -0.1027320E+00  0.9332305E-01  0.2075234E+01  0.4510444E-01 -0.8169933E-01
  0.6401530E+01  0.1545470E+02 -0.1027320E+00  0.9410666E-01  0.2087851E+01  0.4651901E-01 -0.8180492E-01
  0.4855880E+01  0.1600770E+02 -0.1027320E+00  0.9395034E-01  0.2107151E+01  0.4800918E-01 -0.8075757E-01
  0.3263470E+01  0.1640660E+02 -0.1027320E+00  0.9178892E-01  0.2139020E+01  0.4939489E-01 -0.7736504E-01
  0.1639630E+01  0.1664750E+02 -0.1027320E+00  0.8221304E-01  0.2202169E+01  0.4852655E-01 -0.6636383E-01
 -0.7312040E-06  0.1672800E+02 -0.1027320E+00  0.6308215E-01  0.2331116E+01  0.4347326E-01 -0.4571031E-01
 -0.1639630E+01  0.1664750E+02 -0.1027320E+00  0.3658867E-01  0.2755199E+01  0.3389114E-01 -0.1378844E-01
 -0.3263470E+01  0.1640660E+02 -0.1027320E+00  0.3349662E-01 -0.2267669E+01  0.2149889E-01  0.2568698E-01
 -0.4855880E+01  0.1600770E+02 -0.1027320E+00  0.5551951E-01 -0.1798720E+01  0.1254492E-01  0.5408365E-01
 -0.6401530E+01  0.1545470E+02 -0.1027320E+00  0.7192893E-01 -0.1667997E+01  0.6980575E-02  0.7158940E-01
 -0.7885530E+01  0.1475280E+02 -0.1027320E+00  0.8364128E-01 -0.1607087E+01  0.3034765E-02  0.8358621E-01
 -0.9293580E+01  0.1390880E+02 -0.1027320E+00  0.9165945E-01 -0.1573524E+01  0.2500362E-03  0.9165911E-01
 -0.1061210E+02  0.1293090E+02 -0.1027320E+00  0.9873667E-01 -0.1548208E+01 -0.2230118E-02  0.9871148E-01
 -0.1182850E+02  0.1182850E+02 -0.1027320E+00  0.1040570E+00 -0.1531211E+01 -0.4118045E-02  0.1039754E+00
 -0.1293090E+02  0.1061210E+02 -0.1027320E+00  0.1084799E+00 -0.1518230E+01 -0.5699772E-02  0.1083301E+00
 -0.1390880E+02  0.9293580E+01 -0.1027320E+00  0.1128208E+00 -0.1507237E+01 -0.7165962E-02  0.1125930E+00
 -0.1475280E+02  0.7885520E+01 -0.1027320E+00  0.1171244E+00 -0.1498223E+01 -0.8492597E-02  0.1168161E+00
 -0.1545470E+02  0.6401530E+01 -0.1027320E+00  0.1201506E+00 -0.1493086E+01 -0.9327535E-02  0.1197880E+00
 -0.1600770E+02  0.4855880E+01 -0.1027320E+00  0.1217600E+00 -0.1491010E+01 -0.9704485E-02  0.1213727E+00
 -0.1640660E+02  0.3263470E+01 -0.1027320E+00  0.1231590E+00 -0.1490534E+01 -0.9874398E-02  0.1227625E+00
 -0.1664750E+02  0.1639630E+01 -0.1027320E+00  0.1247244E+00 -0.1491354E+01 -0.9898035E-02  0.1243310E+00
 -0.1672800E+02 -0.1462410E-05 -0.1027320E+00  0.1267883E+00 -0.1493271E+01 -0.9819433E-02  0.1264075E+00
 -0.1664750E+02 -0.1639630E+01 -0.1027320E+00  0.1291986E+00 -0.1496971E+01 -0.9529511E-02  0.1288467E+00
 -0.1640660E+02 -0.3263470E+01 -0.1027320E+00  0.1316774E+00 -0.1502648E+01 -0.8966684E-02  0.1313717E+00
 -0.1600770E+02 -0.4855890E+01 -0.1027320E+00  0.1342480E+00 -0.1510476E+01 -0.8092914E-02  0.1340038E+00
 -0.1545470E+02 -0.6401530E+01 -0.1027320E+00  0.1367864E+00 -0.1520449E+01 -0.6883862E-02  0.1366131E+00
 -0.1475280E+02 -0.7885530E+01 -0.1027320E+00  0.1383817E+00 -0.1531813E+01 -0.5393192E-02  0.1382766E+00
 -0.1390880E+02 -0.9293580E+01 -0.1027320E+00  0.1394176E+00 -0.1544888E+01 -0.3611664E-02  0.1393708E+00
 -0.1293090E+02 -0.1061210E+02 -0.1027320E+00  0.1405695E+00 -0.1559936E+01 -0.1526574E-02  0.1405612E+00
 -0.1182850E+02 -0.1182850E+02 -0.1027320E+00  0.1418225E+00 -0.1576947E+01  0.8723233E-03  0.1418198E+00
 -0.1061210E+02 -0.1293090E+02 -0.1027320E+00  0.1428854E+00 -0.1596163E+01  0.3624161E-02  0.1428395E+00
 -0.9293580E+01 -0.1390880E+02 -0.1027320E+00  0.1440547E+00 -0.1618463E+01  0.6863996E-02  0.1438911E+00
 -0.7885520E+01 -0.1475280E+02 -0.1027320E+00  0.1454887E+00 -0.1643513E+01  0.1057018E-01  0.1451042E+00
 -0.6401520E+01 -0.1545470E+02 -0.1027320E+00  0.1458500E+00 -0.1671866E+01  0.1471586E-01  0.1451057E+00
 -0.4855880E+01 -0.1600770E+02 -0.1027320E+00  0.1452362E+00 -0.1705620E+01  0.1952207E-01  0.1439182E+00
 -0.3263470E+01 -0.1640660E+02 -0.1027320E+00  0.1425659E+00 -0.1748302E+01  0.2517354E-01  0.1403258E+00
 -0.1639630E+01 -0.1664750E+02 -0.1027320E+00  0.1325292E+00 -0.1798566E+01  0.2992583E-01  0.1291063E+00
  0.1994790E-06 -0.1672800E+02 -0.1027320E+00  0.1126998E+00 -0.1849285E+01  0.3098156E-01  0.1083577E+00
  0.1639640E+01 -0.1664750E+02 -0.1027320E+00  0.8141927E-01 -0.1920320E+01  0.2788204E-01  0.7649634E-01
  0.3263470E+01 -0.1640660E+02 -0.1027320E+00  0.4327814E-01 -0.2106864E+01  0.2210473E-01  0.3720724E-01
  0.4855890E+01 -0.1600770E+02 -0.1027320E+00  0.2059260E-01 -0.2690131E+01  0.1852943E-01  0.8984169E-02
  0.6401530E+01 -0.1545470E+02 -0.1027320E+00  0.1931057E-01  0.2691487E+01  0.1738725E-01 -0.8401276E-02
  0.7885520E+01 -0.1475280E+02 -0.1027320E+00  0.2671962E-01  0.2278152E+01  0.1736311E-01 -0.2030912E-01
  0.9293580E+01 -0.1390880E+02 -0.1027320E+00  0.3360107E-01  0.2139337E+01  0.1809092E-01 -0.2831520E-01
  0.1061210E+02 -0.1293090E+02 -0.1027320E+00  0.4009281E-01  0.2064104E+01  0.1898560E-01 -0.3531260E-01
  0.1182850E+02 -0.1182850E+02 -0.1027320E+00  0.4530422E-01  0.2033841E+01  0.2023621E-01 -0.4053354E-01
  0.1293090E+02 -0.1061210E+02 -0.1027320E+00  0.4977744E-01  0.2019383E+01  0.2158810E-01 -0.4485251E-01
  0.1390880E+02 -0.9293580E+01 -0.1027320E+00  0.5416371E-01  0.2007358E+01  0.2290184E-01 -0.4908374E-01
  0.1475280E+02 -0.7885520E+01 -0.1027320E+00  0.5851145E-01  0.1996931E+01  0.2418598E-01 -0.5327878E-01
  0.1545470E+02 -0.6401530E+01 -0.1027320E+00  0.6180315E-01  0.1998725E+01  0.2564751E-01 -0.5623019E-01
  0.1600770E+02 -0.4855880E+01 -0.1027320E+00  0.6388199E-01  0.2010700E+01  0.2720432E-01 -0.5779994E-01
  0.1640660E+02 -0.3263470E+01 -0.1027320E+00  0.6577513E-01  0.2022581E+01  0.2871559E-01 -0.5917585E-01
  0.1664750E+02 -0.1639620E+01 -0.1027320E+00  0.6779366E-01  0.2031366E+01  0.3013144E-01 -0.6072954E-01
  0.1672800E+02  0.0000000E+00 -0.2310450E+00  0.6999259E-01  0.2034425E+01  0.3130046E-01 -0.6260387E-01
  0.1664750E+02  0.1639630E+01 -0.2310450E+00  0.7269809E-01  0.2034972E+01  0.3254589E-01 -0.6500599E-01
  0.1640660E+02  0.3263470E+01 -0.2310450E+00  0.7548637E-01  0.2035225E+01  0.3381125E-01 -0.6749067E-01
  0.1600770E+02  0.4855880E+01 -0.2310450E+00  0.7838549E-01  0.2035244E+01  0.3511113E-01 -0.7008205E-01
  0.1545470E+02  0.6401530E+01 -0.2310450E+00  0.8128332E-01  0.2035698E+01  0.3644213E-01 -0.7265638E-01
  0.1475280E+02  0.7885530E+01 -0.2310450E+00  0.8331021E-01  0.2039431E+01  0.3762858E-01 -0.7432820E-01
  0.1390880E+02  0.9293580E+01 -0.2310450E+00  0.8481088E-01  0.2044846E+01  0.3871555E-01 -0.7545854E-01
  0.1293090E+02  0.1061210E+02 -0.2310450E+00  0.8640809E-01  0.2049835E+01  0.3982775E-01 -0.7668186E-01
  0.1182850E+02  0.1182850E+02 -0.2310450E+00  0.8808301E-01  0.2054675E+01  0.4097765E-01 -0.7797082E-01
  0.1061210E+02  0.1293090E+02 -0.2310450E+00  0.8957144E-01  0.2060737E+01  0.4214995E-01 -0.7903432E-01
  0.9293580E+01  0.1390880E+02 -0.2310450E+00  0.9117971E-01  0.2067623E+01  0.4345973E-01 -0.8015605E-01
  0.7885520E+01  0.1475280E+02 -0.2310450E+00  0.9300715E-01  0.2075197E+01  0.4494879E-01 -0.8142442E-01
  0.6401530E+01  0.1545470E+02 -0.2310450E+00  0.9381268E-01  0.2087753E+01  0.4636567E-01 -0.8155394E-01
  0.4855880E+01  0.1600770E+02 -0.2310450E+00  0.9368026E-01  0.2106993E+01  0.4785848E-01 -0.8053295E-01
  0.3263470E+01  0.1640660E+02 -0.2310450E+00  0.9152041E-01  0.2138896E+01  0.4924083E-01 -0.7714485E-01
  0.1639630E+01  0.1664750E+02 -0.2310450E+00  0.8199304E-01  0.2201952E+01  0.4838232E-01 -0.6619675E-01
 -0.7312040E-06  0.1672800E+02 -0.2310450E+00  0.6294689E-01  0.2330533E+01  0.4335343E-01 -0.4563760E-01
 -0.1639630E+01  0.1664750E+02 -0.2310450E+00  0.3652652E-01  0.2753139E+01  0.3380514E-01 -0.1383472E-01
 -0.3263470E+01  0.1640660E+02 -0.2310450E+00  0.3334972E-01 -0.2269155E+01  0.2144259E-01  0.2554250E-01
 -0.4855880E+01  0.1600770E+02 -0.2310450E+00  0.5533729E-01 -0.1798616E+01  0.1249816E-01  0.5390743E-01
 -0.6401530E+01  0.1545470E+02 -0.2310450E+00  0.7169125E-01 -0.1667923E+01  0.6952180E-02  0.7135337E-01
 -0.7885530E+01  0.1475280E+02 -0.2310450E+00  0.8334023E-01 -0.1607134E+01  0.3027754E-02  0.8328521E-01
 -0.9293580E+01  0.1390880E+02 -0.2310450E+00  0.9136370E-01 -0.1573454E+01  0.2428426E-03  0.9136338E-01
 -0.1061210E+02  0.1293090E+02 -0.2310450E+00  0.9838471E-01 -0.1548244E+01 -0.2218620E-02  0.9835969E-01
 -0.1182850E+02  0.1182850E+02 -0.2310450E+00  0.1036989E+00 -0.1531209E+01 -0.4104070E-02  0.1036176E+00
 -0.1293090E+02  0.1061210E+02 -0.2310450E+00  0.1081171E+00 -0.1518212E+01 -0.5682644E-02  0.1079677E+00
 -0.1390880E+02  0.9293580E+01 -0.2310450E+00  0.1124268E+00 -0.1507243E+01 -0.7140338E-02  0.1121999E+00
 -0.1475280E+02  0.7885520E+01 -0.2310450E+00  0.1166767E+00 -0.1498296E+01 -0.8451735E-02  0.1163702E+00
 -0.1545470E+02  0.6401530E+01 -0.2310450E+00  0.1196830E+00 -0.1493164E+01 -0.9281956E-02  0.1193226E+00
 -0.1600770E+02  0.4855880E+01 -0.2310450E+00  0.1213154E+00 -0.1491049E+01 -0.9664346E-02  0.1209299E+00
 -0.1640660E+02  0.3263470E+01 -0.2310450E+00  0.1227368E+00 -0.1490544E+01 -0.9839334E-02  0.1223418E+00
 -0.1664750E+02  0.1639630E+01 -0.2310450E+00  0.1243143E+00 -0.1491351E+01 -0.9865762E-02  0.1239222E+00
 -0.1672800E+02 -0.1462410E-05 -0.2310450E+00  0.1263726E+00 -0.1493281E+01 -0.9785997E-02  0.1259931E+00
 -0.1664750E+02 -0.1639630E+01 -0.2310450E+00  0.1287636E+00 -0.1496983E+01 -0.9495792E-02  0.1284130E+00
 -0.1640660E+02 -0.3263470E+01 -0.2310450E+00  0.1312177E+00 -0.1502666E+01 -0.8932930E-02  0.1309133E+00
 -0.1600770E+02 -0.4855890E+01 -0.2310450E+00  0.1337577E+00 -0.1510492E+01 -0.8061239E-02  0.1335146E+00
 -0.1545470E+02 -0.6401530E+01 -0.2310450E+00  0.1362640E+00 -0.1520458E+01 -0.6856394E-02  0.1360914E+00
 -0.1475280E+02 -0.7885530E+01 -0.2310450E+00  0.1378623E+00 -0.1531826E+01 -0.5371122E-02  0.1377576E+00
 -0.1390880E+02 -0.9293580E+01 -0.2310450E+00  0.1389185E+00 -0.1544912E+01 -0.3595384E-02  0.1388720E+00
 -0.1293090E+02 -0.1061210E+02 -0.2310450E+00  0.1400800E+00 -0.1559970E+01 -0.1516504E-02  0.1400718E+00
 -0.1182850E+02 -0.1182850E+02 -0.2310450E+00  0.1413317E+00 -0.1576990E+01  0.8752962E-03  0.1413290E+00
 -0.1061210E+02 -0.1293090E+02 -0.2310450E+00  0.1423944E+00 -0.1596210E+01  0.3618432E-02  0.1423484E+00
 -0.9293580E+01 -0.1390880E+02 -0.2310450E+00  0.1435722E+00 -0.1618492E+01  0.6845128E-02  0.1434089E+00
 -0.7885520E+01 -0.1475280E+02 -0.2310450E+00  0.1449818E+00 -0.1643537E+01  0.1053682E-01  0.1445984E+00
 -0.6401520E+01 -0.1545470E+02 -0.2310450E+00  0.1453669E+00 -0.1671902E+01  0.1467240E-01  0.1446245E+00
 -0.4855880E+01 -0.1600770E+02 -0.2310450E+00  0.1447788E+00 -0.1705667E+01  0.1946730E-01  0.1434640E+00
 -0.3263470E+01 -0.1640660E+02 -0.2310450E+00  0.1421116E+00 -0.1748382E+01  0.2510453E-01  0.1398767E+00
 -0.1639630E+01 -0.1664750E+02 -0.2310450E+00  0.1321264E+00 -0.1798669E+01  0.2984816E-01  0.1287109E+00
  0.1994790E-06 -0.1672800E+02 -0.2310450E+00  0.1123885E+00 -0.1849357E+01  0.3090368E-01  0.1080561E+00
  0.1639640E+01 -0.1664750E+02 -0.2310450E+00  0.8122471E-01 -0.1920299E+01  0.2781383E-01  0.7631411E-01
  0.3263470E+01 -0.1640660E+02 -0.2310450E+00  0.4317443E-01 -0.2106691E+01  0.2204532E-01  0.3712190E-01
  0.4855890E+01 -0.1600770E+02 -0.2310450E+00  0.2051251E-01 -0.2691134E+01  0.1846634E-01  0.8930698E-02
  0.6401530E+01 -0.1545470E+02 -0.2310450E+00  0.1925198E-01  0.2690384E+01  0.1732526E-01 -0.8394890E-02
  0.7885520E+01 -0.1475280E+02 -0.2310450E+00  0.2662867E-01  0.2278243E+01  0.1730584E-01 -0.2023843E-01
  0.9293580E+01 -0.1390880E+02 -0.2310450E+00  0.3351017E-01  0.2138728E+01  0.1802477E-01 -0.2824960E-01
  0.1061210E+02 -0.1293090E+02 -0.2310450E+00  0.3995620E-01  0.2064169E+01  0.1892320E-01 -0.3519105E-01
  0.1182850E+02 -0.1182850E+02 -0.2310450E+00  0.4515901E-01  0.2033696E+01  0.2016552E-01 -0.4040654E-01
  0.1293090E+02 -0.1061210E+02 -0.2310450E+00  0.4962473E-01  0.2019120E+01  0.2151010E-01 -0.4472056E-01
  0.1390880E+02 -0.9293580E+01 -0.2310450E+00  0.5398247E-01  0.2007282E+01  0.2282146E-01 -0.4892124E-01
  0.1475280E+02 -0.7885520E+01 -0.2310450E+00  0.5828276E-01  0.1997220E+01  0.2410675E-01 -0.5306359E-01
  0.1545470E+02 -0.6401530E+01 -0.2310450E+00  0.6155483E-01  0.1999064E+01  0.2556346E-01 -0.5599559E-01
  0.1600770E+02 -0.4855880E+01 -0.2310450E+00  0.6365030E-01  0.2010798E+01  0.2711130E-01 -0.5758765E-01
  0.1640660E+02 -0.3263470E+01 -0.2310450E+00  0.6556068E-01  0.2022464E+01  0.2861505E-01 -0.5898628E-01
  0.1664750E+02 -0.1639620E+01 -0.2310450E+00  0.6758746E-01  0.2031127E+01  0.3002536E-01 -0.6055198E-01
  0.1672800E+02  0.0000000E+00 -0.4105000E+00  0.6970244E-01  0.2034064E+01  0.3114820E-01 -0.6235559E-01
  0.1664750E+02  0.1639630E+01 -0.4105000E+00  0.7238163E-01  0.2034735E+01  0.3238887E-01 -0.6473068E-01
  0.1640660E+02  0.3263470E+01 -0.4105000E+00  0.7513668E-01  0.2035125E+01  0.3364791E-01 -0.6718139E-01
  0.1600770E+02  0.4855880E+01 -0.4105000E+00  0.7799338E-01  0.2035289E+01  0.3493864E-01 -0.6972990E-01
  0.1545470E+02  0.6401530E+01 -0.4105000E+00  0.8084548E-01  0.2035865E+01  0.3625789E-01 -0.7225896E-01
  0.1475280E+02  0.7885530E+01 -0.4105000E+00  0.8287400E-01  0.2039548E+01  0.3744020E-01 -0.7393464E-01
  0.1390880E+02  0.9293580E+01 -0.4105000E+00  0.8440023E-01  0.2044839E+01  0.3852758E-01 -0.7509343E-01
  0.1293090E+02  0.1061210E+02 -0.4105000E+00  0.8600878E-01  0.2049780E+01  0.3963950E-01 -0.7632968E-01
  0.1182850E+02  0.1182850E+02 -0.4105000E+00  0.8767911E-01  0.2054603E+01  0.4078417E-01 -0.7761622E-01
  0.1061210E+02  0.1293090E+02 -0.4105000E+00  0.8916396E-01  0.2060657E+01  0.4195188E-01 -0.7867815E-01
  0.9293580E+01  0.1390880E+02 -0.4105000E+00  0.9077983E-01  0.2067474E+01  0.4325721E-01 -0.7981097E-01
  0.7885520E+01  0.1475280E+02 -0.4105000E+00  0.9256748E-01  0.2075130E+01  0.4473089E-01 -0.8104250E-01
  0.6401530E+01  0.1545470E+02 -0.4105000E+00  0.9340194E-01  0.2087611E+01  0.4615115E-01 -0.8120341E-01
  0.4855880E+01  0.1600770E+02 -0.4105000E+00  0.9328677E-01  0.2106795E+01  0.4764155E-01 -0.8020414E-01
  0.3263470E+01  0.1640660E+02 -0.4105000E+00  0.9111548E-01  0.2138764E+01  0.4901287E-01 -0.7680997E-01
  0.1639630E+01  0.1664750E+02 -0.4105000E+00  0.8164362E-01  0.2201754E+01  0.4816306E-01 -0.6592420E-01
 -0.7312040E-06  0.1672800E+02 -0.4105000E+00  0.6270709E-01  0.2330026E+01  0.4316524E-01 -0.4548561E-01
 -0.1639630E+01  0.1664750E+02 -0.4105000E+00  0.3640106E-01  0.2751411E+01  0.3366515E-01 -0.1384538E-01
 -0.3263470E+01  0.1640660E+02 -0.4105000E+00  0.3315474E-01 -0.2270687E+01  0.2135609E-01  0.2536048E-01
 -0.4855880E+01  0.1600770E+02 -0.4105000E+00  0.5507503E-01 -0.1798530E+01  0.1243430E-01  0.5365302E-01
 -0.6401530E+01  0.1545470E+02 -0.4105000E+00  0.7135665E-01 -0.1667833E+01  0.6913338E-02  0.7102096E-01
 -0.7885530E+01  0.1475280E+02 -0.4105000E+00  0.8291781E-01 -0.1607218E+01  0.3019353E-02  0.8286282E-01
 -0.9293580E+01  0.1390880E+02 -0.4105000E+00  0.9095214E-01 -0.1573364E+01  0.2335410E-03  0.9095184E-01
 -0.1061210E+02  0.1293090E+02 -0.4105000E+00  0.9789581E-01 -0.1548300E+01 -0.2202157E-02  0.9787104E-01
 -0.1182850E+02  0.1182850E+02 -0.4105000E+00  0.1032032E+00 -0.1531210E+01 -0.4084393E-02  0.1031223E+00