 VARIABLES="X" "Y" "Z" "abs(eta) (m)" "angle(phi) (rad)" "PRE1" "PRE2"
ZONE N=   3200 ,E =    3136 ,F=FEPOINT,ET=QUADRILATERAL
  0.1672800E+02  0.0000000E+00  0.0000000E+00  0.3511236E+00 -0.1325375E+01 -0.8531084E-01  0.3406022E+00
  0.1664750E+02  0.1639630E+01  0.0000000E+00  0.3503491E+00 -0.1326064E+01 -0.8488852E-01  0.3399094E+00
  0.1640660E+02  0.3263470E+01  0.0000000E+00  0.3481783E+00 -0.1328211E+01 -0.8363710E-01  0.3379837E+00
  0.1600770E+02  0.4855880E+01  0.0000000E+00  0.3447039E+00 -0.1331853E+01 -0.8158334E-01  0.3349104E+00
  0.1545470E+02  0.6401530E+01  0.0000000E+00  0.3411417E+00 -0.1337706E+01 -0.7879872E-01  0.3319163E+00
  0.1475280E+02  0.7885530E+01  0.0000000E+00  0.3377545E+00 -0.1345980E+01 -0.7529484E-01  0.3292549E+00
  0.1390880E+02  0.9293580E+01  0.0000000E+00  0.3356975E+00 -0.1356920E+01 -0.7125167E-01  0.3280488E+00
  0.1293090E+02  0.1061210E+02  0.0000000E+00  0.3340326E+00 -0.1369872E+01 -0.6666460E-01  0.3273127E+00
  0.1182850E+02  0.1182850E+02  0.0000000E+00  0.3270794E+00 -0.1383087E+01 -0.6103609E-01  0.3213339E+00
  0.1061210E+02  0.1293090E+02  0.0000000E+00  0.3196232E+00 -0.1398600E+01 -0.5476649E-01  0.3148962E+00
  0.9293580E+01  0.1390880E+02  0.0000000E+00  0.3103531E+00 -0.1416163E+01 -0.4779979E-01  0.3066500E+00
  0.7885520E+01  0.1475280E+02  0.0000000E+00  0.2950417E+00 -0.1435201E+01 -0.3988386E-01  0.2923335E+00
  0.6401530E+01  0.1545470E+02  0.0000000E+00  0.2774343E+00 -0.1456819E+01 -0.3155291E-01  0.2756342E+00
  0.4855880E+01  0.1600770E+02  0.0000000E+00  0.2490478E+00 -0.1482165E+01 -0.2204444E-01  0.2480703E+00
  0.3263470E+01  0.1640660E+02  0.0000000E+00  0.1990146E+00 -0.1516790E+01 -0.1074278E-01  0.1987244E+00
  0.1639630E+01  0.1664750E+02  0.0000000E+00  0.1234677E+00 -0.1592966E+01  0.2736980E-02  0.1234373E+00
 -0.7312040E-06  0.1672800E+02  0.0000000E+00  0.4854784E-01 -0.1939851E+01  0.1751285E-01  0.4527905E-01
 -0.1639630E+01  0.1664750E+02  0.0000000E+00  0.4701648E-01  0.2372474E+01  0.3378246E-01 -0.3270008E-01
 -0.3263470E+01  0.1640660E+02  0.0000000E+00  0.1188261E+00  0.2010394E+01  0.5056946E-01 -0.1075285E+00
 -0.4855880E+01  0.1600770E+02  0.0000000E+00  0.1688184E+00  0.1956048E+01  0.6344068E-01 -0.1564447E+00
 -0.6401530E+01  0.1545470E+02  0.0000000E+00  0.1975998E+00  0.1948062E+01  0.7279178E-01 -0.1837037E+00
 -0.7885530E+01  0.1475280E+02  0.0000000E+00  0.2156946E+00  0.1952543E+01  0.8035527E-01 -0.2001679E+00
 -0.9293580E+01  0.1390880E+02  0.0000000E+00  0.2313498E+00  0.1957116E+01  0.8716841E-01 -0.2142998E+00
 -0.1061210E+02  0.1293090E+02  0.0000000E+00  0.2409910E+00  0.1966193E+01  0.9282346E-01 -0.2223971E+00
 -0.1182850E+02  0.1182850E+02  0.0000000E+00  0.2487974E+00  0.1975372E+01  0.9793377E-01 -0.2287119E+00
 -0.1293090E+02  0.1061210E+02  0.0000000E+00  0.2560692E+00  0.1983381E+01  0.1026783E+00 -0.2345818E+00
 -0.1390880E+02  0.9293580E+01  0.0000000E+00  0.2581340E+00  0.1995197E+01  0.1062930E+00 -0.2352338E+00
 -0.1475280E+02  0.7885520E+01  0.0000000E+00  0.2604446E+00  0.2004131E+01  0.1093605E+00 -0.2363719E+00
 -0.1545470E+02  0.6401530E+01  0.0000000E+00  0.2639384E+00  0.2009205E+01  0.1120417E+00 -0.2389773E+00
 -0.1600770E+02  0.4855880E+01  0.0000000E+00  0.2675563E+00  0.2012080E+01  0.1142734E+00 -0.2419254E+00
 -0.1640660E+02  0.3263470E+01  0.0000000E+00  0.2710395E+00  0.2013057E+01  0.1160006E+00 -0.2449618E+00
 -0.1664750E+02  0.1639630E+01  0.0000000E+00  0.2732084E+00  0.2013522E+01  0.1170437E+00 -0.2468676E+00
 -0.1672800E+02 -0.1462410E-05  0.0000000E+00  0.2739803E+00  0.2013618E+01  0.1173981E+00 -0.2475539E+00
 -0.1664750E+02 -0.1639630E+01  0.0000000E+00  0.2732084E+00  0.2013523E+01  0.1170438E+00 -0.2468676E+00
 -0.1640660E+02 -0.3263470E+01  0.0000000E+00  0.2710400E+00  0.2013057E+01  0.1160006E+00 -0.2449623E+00
 -0.1600770E+02 -0.4855890E+01  0.0000000E+00  0.2675559E+00  0.2012080E+01  0.1142732E+00 -0.2419251E+00
 -0.1545470E+02 -0.6401530E+01  0.0000000E+00  0.2639383E+00  0.2009206E+01  0.1120419E+00 -0.2389771E+00
 -0.1475280E+02 -0.7885530E+01  0.0000000E+00  0.2604445E+00  0.2004130E+01  0.1093604E+00 -0.2363719E+00
 -0.1390880E+02 -0.9293580E+01  0.0000000E+00  0.2581339E+00  0.1995198E+01  0.1062932E+00 -0.2352336E+00
 -0.1293090E+02 -0.1061210E+02  0.0000000E+00  0.2560699E+00  0.1983382E+01  0.1026788E+00 -0.2345823E+00
 -0.1182850E+02 -0.1182850E+02  0.0000000E+00  0.2487976E+00  0.1975374E+01  0.9793424E-01 -0.2287118E+00
 -0.1061210E+02 -0.1293090E+02  0.0000000E+00  0.2409913E+00  0.1966193E+01  0.9282369E-01 -0.2223973E+00
 -0.9293580E+01 -0.1390880E+02  0.0000000E+00  0.2313497E+00  0.1957114E+01  0.8716793E-01 -0.2142999E+00
 -0.7885520E+01 -0.1475280E+02  0.0000000E+00  0.2156947E+00  0.1952541E+01  0.8035497E-01 -0.2001681E+00
 -0.6401520E+01 -0.1545470E+02  0.0000000E+00  0.1976003E+00  0.1948065E+01  0.7279248E-01 -0.1837039E+00
 -0.4855880E+01 -0.1600770E+02  0.0000000E+00  0.1688186E+00  0.1956048E+01  0.6344080E-01 -0.1564449E+00
 -0.3263470E+01 -0.1640660E+02  0.0000000E+00  0.1188258E+00  0.2010394E+01  0.5056934E-01 -0.1075282E+00
 -0.1639630E+01 -0.1664750E+02  0.0000000E+00  0.4701692E-01  0.2372478E+01  0.3378290E-01 -0.3270025E-01
  0.1994790E-06 -0.1672800E+02  0.0000000E+00  0.4854835E-01 -0.1939881E+01  0.1751441E-01  0.4527900E-01
  0.1639640E+01 -0.1664750E+02  0.0000000E+00  0.1234681E+00 -0.1592971E+01  0.2737594E-02  0.1234377E+00
  0.3263470E+01 -0.1640660E+02  0.0000000E+00  0.1990148E+00 -0.1516792E+01 -0.1074253E-01  0.1987246E+00
  0.4855890E+01 -0.1600770E+02  0.0000000E+00  0.2490479E+00 -0.1482167E+01 -0.2204394E-01  0.2480704E+00
  0.6401530E+01 -0.1545470E+02  0.0000000E+00  0.2774346E+00 -0.1456822E+01 -0.3155207E-01  0.2756346E+00
  0.7885520E+01 -0.1475280E+02  0.0000000E+00  0.2950416E+00 -0.1435202E+01 -0.3988337E-01  0.2923334E+00
  0.9293580E+01 -0.1390880E+02  0.0000000E+00  0.3103531E+00 -0.1416165E+01 -0.4779915E-01  0.3066501E+00
  0.1061210E+02 -0.1293090E+02  0.0000000E+00  0.3196229E+00 -0.1398597E+01 -0.5476728E-01  0.3148958E+00
  0.1182850E+02 -0.1182850E+02  0.0000000E+00  0.3270795E+00 -0.1383085E+01 -0.6103661E-01  0.3213340E+00
  0.1293090E+02 -0.1061210E+02  0.0000000E+00  0.3340330E+00 -0.1369873E+01 -0.6666438E-01  0.3273132E+00
  0.1390880E+02 -0.9293580E+01  0.0000000E+00  0.3356976E+00 -0.1356920E+01 -0.7125153E-01  0.3280489E+00
  0.1475280E+02 -0.7885520E+01  0.0000000E+00  0.3377548E+00 -0.1345978E+01 -0.7529528E-01  0.3292551E+00
  0.1545470E+02 -0.6401530E+01  0.0000000E+00  0.3411416E+00 -0.1337709E+01 -0.7879784E-01  0.3319164E+00
  0.1600770E+02 -0.4855880E+01  0.0000000E+00  0.3447039E+00 -0.1331852E+01 -0.8158346E-01  0.3349103E+00
  0.1640660E+02 -0.3263470E+01  0.0000000E+00  0.3481785E+00 -0.1328210E+01 -0.8363733E-01  0.3379838E+00
  0.1664750E+02 -0.1639620E+01  0.0000000E+00  0.3503489E+00 -0.1326066E+01 -0.8488752E-01  0.3399096E+00
  0.1672800E+02  0.0000000E+00 -0.2568960E-01  0.3508034E+00 -0.1325379E+01 -0.8523145E-01  0.3402920E+00
  0.1664750E+02  0.1639630E+01 -0.2568960E-01  0.3500319E+00 -0.1326069E+01 -0.8480976E-01  0.3396022E+00
  0.1640660E+02  0.3263470E+01 -0.2568960E-01  0.3478689E+00 -0.1328215E+01 -0.8356124E-01  0.3376837E+00
  0.1600770E+02  0.4855880E+01 -0.2568960E-01  0.3444067E+00 -0.1331866E+01 -0.8150833E-01  0.3346227E+00
  0.1545470E+02  0.6401530E+01 -0.2568960E-01  0.3408520E+00 -0.1337721E+01 -0.7872687E-01  0.3316356E+00
  0.1475280E+02  0.7885530E+01 -0.2568960E-01  0.3374681E+00 -0.1345988E+01 -0.7522818E-01  0.3289764E+00
  0.1390880E+02  0.9293580E+01 -0.2568960E-01  0.3354000E+00 -0.1356925E+01 -0.7118686E-01  0.3277585E+00
  0.1293090E+02  0.1061210E+02 -0.2568960E-01  0.3337190E+00 -0.1369877E+01 -0.6660024E-01  0.3270057E+00
  0.1182850E+02  0.1182850E+02 -0.2568960E-01  0.3267881E+00 -0.1383100E+01 -0.6097739E-01  0.3210486E+00
  0.1061210E+02  0.1293090E+02 -0.2568960E-01  0.3193385E+00 -0.1398611E+01 -0.5471407E-01  0.3146164E+00
  0.9293580E+01  0.1390880E+02 -0.2568960E-01  0.3100678E+00 -0.1416177E+01 -0.4775165E-01  0.3063687E+00
  0.7885520E+01  0.1475280E+02 -0.2568960E-01  0.2947960E+00 -0.1435213E+01 -0.3984696E-01  0.2920906E+00
  0.6401530E+01  0.1545470E+02 -0.2568960E-01  0.2771898E+00 -0.1456834E+01 -0.3152073E-01  0.2753918E+00
  0.4855880E+01  0.1600770E+02 -0.2568960E-01  0.2488246E+00 -0.1482180E+01 -0.2202095E-01  0.2478482E+00
  0.3263470E+01  0.1640660E+02 -0.2568960E-01  0.1988510E+00 -0.1516797E+01 -0.1073258E-01  0.1985611E+00
  0.1639630E+01  0.1664750E+02 -0.2568960E-01  0.1233807E+00 -0.1592977E+01  0.2736425E-02  0.1233504E+00
 -0.7312040E-06  0.1672800E+02 -0.2568960E-01  0.4850487E-01 -0.1939924E+01  0.1750066E-01  0.4523770E-01
 -0.1639630E+01  0.1664750E+02 -0.2568960E-01  0.4699681E-01  0.2372216E+01  0.3375991E-01 -0.3269510E-01
 -0.3263470E+01  0.1640660E+02 -0.2568960E-01  0.1187354E+00  0.2010375E+01  0.5052888E-01 -0.1074473E+00
 -0.4855880E+01  0.1600770E+02 -0.2568960E-01  0.1686688E+00  0.1956059E+01  0.6338612E-01 -0.1563054E+00
 -0.6401530E+01  0.1545470E+02 -0.2568960E-01  0.1974307E+00  0.1948072E+01  0.7273134E-01 -0.1835457E+00
 -0.7885530E+01  0.1475280E+02 -0.2568960E-01  0.2155210E+00  0.1952517E+01  0.8028541E-01 -0.2000089E+00
 -0.9293580E+01  0.1390880E+02 -0.2568960E-01  0.2311388E+00  0.1957122E+01  0.8709012E-01 -0.2141038E+00
 -0.1061210E+02  0.1293090E+02 -0.2568960E-01  0.2407790E+00  0.1966187E+01  0.9274051E-01 -0.2222020E+00
 -0.1182850E+02  0.1182850E+02 -0.2568960E-01  0.2485787E+00  0.1975375E+01  0.9784836E-01 -0.2285106E+00
 -0.1293090E+02  0.1061210E+02 -0.2568960E-01  0.2558285E+00  0.1983401E+01  0.1025863E+00 -0.2343593E+00
 -0.1390880E+02  0.9293580E+01 -0.2568960E-01  0.2579072E+00  0.1995188E+01  0.1061975E+00 -0.2350282E+00
 -0.1475280E+02  0.7885520E+01 -0.2568960E-01  0.2602286E+00  0.2004109E+01  0.1092646E+00 -0.2361783E+00
 -0.1545470E+02  0.6401530E+01 -0.2568960E-01  0.2637202E+00  0.2009184E+01  0.1119440E+00 -0.2387821E+00
 -0.1600770E+02  0.4855880E+01 -0.2568960E-01  0.2673298E+00  0.2012066E+01  0.1141734E+00 -0.2417223E+00
 -0.1640660E+02  0.3263470E+01 -0.2568960E-01  0.2708011E+00  0.2013049E+01  0.1158965E+00 -0.2447473E+00
 -0.1664750E+02  0.1639630E+01 -0.2568960E-01  0.2729622E+00  0.2013523E+01  0.1169383E+00 -0.2466451E+00
 -0.1672800E+02 -0.1462410E-05 -0.2568960E-01  0.2737303E+00  0.2013619E+01  0.1172912E+00 -0.2473278E+00
 -0.1664750E+02 -0.1639630E+01 -0.2568960E-01  0.2729623E+00  0.2013523E+01  0.1169383E+00 -0.2466452E+00
 -0.1640660E+02 -0.3263470E+01 -0.2568960E-01  0.2708015E+00  0.2013052E+01  0.1158973E+00 -0.2447474E+00
 -0.1600770E+02 -0.4855890E+01 -0.2568960E-01  0.2673298E+00  0.2012066E+01  0.1141734E+00 -0.2417222E+00
 -0.1545470E+02 -0.6401530E+01 -0.2568960E-01  0.2637203E+00  0.2009186E+01  0.1119444E+00 -0.2387820E+00
 -0.1475280E+02 -0.7885530E+01 -0.2568960E-01  0.2602285E+00  0.2004108E+01  0.1092643E+00 -0.2361783E+00
 -0.1390880E+02 -0.9293580E+01 -0.2568960E-01  0.2579075E+00  0.1995188E+01  0.1061976E+00 -0.2350284E+00
 -0.1293090E+02 -0.1061210E+02 -0.2568960E-01  0.2558287E+00  0.1983401E+01  0.1025865E+00 -0.2343594E+00
 -0.1182850E+02 -0.1182850E+02 -0.2568960E-01  0.2485790E+00  0.1975375E+01  0.9784846E-01 -0.2285109E+00
 -0.1061210E+02 -0.1293090E+02 -0.2568960E-01  0.2407791E+00  0.1966186E+01  0.9274036E-01 -0.2222021E+00
 -0.9293580E+01 -0.1390880E+02 -0.2568960E-01  0.2311385E+00  0.1957122E+01  0.8709019E-01 -0.2141035E+00
 -0.7885520E+01 -0.1475280E+02 -0.2568960E-01  0.2155213E+00  0.1952519E+01  0.8028602E-01 -0.2000090E+00
 -0.6401520E+01 -0.1545470E+02 -0.2568960E-01  0.1974303E+00  0.1948071E+01  0.7273092E-01 -0.1835455E+00
 -0.4855880E+01 -0.1600770E+02 -0.2568960E-01  0.1686688E+00  0.1956055E+01  0.6338561E-01 -0.1563055E+00
 -0.3263470E+01 -0.1640660E+02 -0.2568960E-01  0.1187355E+00  0.2010377E+01  0.5052904E-01 -0.1074473E+00
 -0.1639630E+01 -0.1664750E+02 -0.2568960E-01  0.4699668E-01  0.2372225E+01  0.3376009E-01 -0.3269471E-01
  0.1994790E-06 -0.1672800E+02 -0.2568960E-01  0.4850512E-01 -0.1939916E+01  0.1750039E-01  0.4523807E-01
  0.1639640E+01 -0.1664750E+02 -0.2568960E-01  0.1233810E+00 -0.1592977E+01  0.2736416E-02  0.1233507E+00
  0.3263470E+01 -0.1640660E+02 -0.2568960E-01  0.1988511E+00 -0.1516798E+01 -0.1073243E-01  0.1985613E+00
  0.4855890E+01 -0.1600770E+02 -0.2568960E-01  0.2488250E+00 -0.1482179E+01 -0.2202147E-01  0.2478486E+00
  0.6401530E+01 -0.1545470E+02 -0.2568960E-01  0.2771897E+00 -0.1456828E+01 -0.3152236E-01  0.2753915E+00
  0.7885520E+01 -0.1475280E+02 -0.2568960E-01  0.2947966E+00 -0.1435211E+01 -0.3984771E-01  0.2920911E+00
  0.9293580E+01 -0.1390880E+02 -0.2568960E-01  0.3100684E+00 -0.1416174E+01 -0.4775259E-01  0.3063692E+00
  0.1061210E+02 -0.1293090E+02 -0.2568960E-01  0.3193386E+00 -0.1398610E+01 -0.5471441E-01  0.3146164E+00
  0.1182850E+02 -0.1182850E+02 -0.2568960E-01  0.3267882E+00 -0.1383098E+01 -0.6097820E-01  0.3210486E+00
  0.1293090E+02 -0.1061210E+02 -0.2568960E-01  0.3337189E+00 -0.1369875E+01 -0.6660093E-01  0.3270055E+00
  0.1390880E+02 -0.9293580E+01 -0.2568960E-01  0.3354002E+00 -0.1356927E+01 -0.7118630E-01  0.3277588E+00
  0.1475280E+02 -0.7885520E+01 -0.2568960E-01  0.3374680E+00 -0.1345992E+01 -0.7522694E-01  0.3289766E+00
  0.1545470E+02 -0.6401530E+01 -0.2568960E-01  0.3408518E+00 -0.1337723E+01 -0.7872623E-01  0.3316355E+00
  0.1600770E+02 -0.4855880E+01 -0.2568960E-01  0.3444067E+00 -0.1331865E+01 -0.8150886E-01  0.3346226E+00
  0.1640660E+02 -0.3263470E+01 -0.2568960E-01  0.3478686E+00 -0.1328219E+01 -0.8355992E-01  0.3376838E+00
  0.1664750E+02 -0.1639620E+01 -0.2568960E-01  0.3500319E+00 -0.1326069E+01 -0.8480976E-01  0.3396021E+00
  0.1672800E+02  0.0000000E+00 -0.1027320E+00  0.3498687E+00 -0.1325405E+01 -0.8499552E-01  0.3393875E+00
  0.1664750E+02  0.1639630E+01 -0.1027320E+00  0.3491066E+00 -0.1326099E+01 -0.8457538E-01  0.3387069E+00
  0.1640660E+02  0.3263470E+01 -0.1027320E+00  0.3469676E+00 -0.1328256E+01 -0.8333108E-01  0.3368122E+00
  0.1600770E+02  0.4855880E+01 -0.1027320E+00  0.3435422E+00 -0.1331910E+01 -0.8128906E-01  0.3337863E+00
  0.1545470E+02  0.6401530E+01 -0.1027320E+00  0.3400119E+00 -0.1337772E+01 -0.7851593E-01  0.3308223E+00
  0.1475280E+02  0.7885530E+01 -0.1027320E+00  0.3366343E+00 -0.1346034E+01 -0.7502717E-01  0.3281670E+00
  0.1390880E+02  0.9293580E+01 -0.1027320E+00  0.3345315E+00 -0.1356956E+01 -0.7099251E-01  0.3269119E+00
  0.1293090E+02  0.1061210E+02 -0.1027320E+00  0.3327988E+00 -0.1369889E+01 -0.6641286E-01  0.3261048E+00
  0.1182850E+02  0.1182850E+02 -0.1027320E+00  0.3259342E+00 -0.1383135E+01 -0.6080684E-01  0.3202118E+00
  0.1061210E+02  0.1293090E+02 -0.1027320E+00  0.3185017E+00 -0.1398641E+01 -0.5456136E-01  0.3137936E+00
  0.9293580E+01  0.1390880E+02 -0.1027320E+00  0.3092256E+00 -0.1416196E+01 -0.4761609E-01  0.3055376E+00
  0.7885520E+01  0.1475280E+02 -0.1027320E+00  0.2940662E+00 -0.1435244E+01 -0.3973942E-01  0.2913687E+00
  0.6401530E+01  0.1545470E+02 -0.1027320E+00  0.2764642E+00 -0.1456870E+01 -0.3142858E-01  0.2746719E+00
  0.4855880E+01  0.1600770E+02 -0.1027320E+00  0.2481518E+00 -0.1482213E+01 -0.2195328E-01  0.2471788E+00
  0.3263470E+01  0.1640660E+02 -0.1027320E+00  0.1983759E+00 -0.1516839E+01 -0.1069859E-01  0.1980872E+00
  0.1639630E+01  0.1664750E+02 -0.1027320E+00  0.1231101E+00 -0.1592980E+01  0.2730817E-02  0.1230798E+00
 -0.7312040E-06  0.1672800E+02 -0.1027320E+00  0.4837593E-01 -0.1940137E+01  0.1746374E-01  0.4511373E-01
 -0.1639630E+01  0.1664750E+02 -0.1027320E+00  0.4692770E-01  0.2371446E+01  0.3368511E-01 -0.3267296E-01
 -0.3263470E+01  0.1640660E+02 -0.1027320E+00  0.1184813E+00  0.2010273E+01  0.5040976E-01 -0.1072226E+00
 -0.4855880E+01  0.1600770E+02 -0.1027320E+00  0.1682183E+00  0.1956091E+01  0.6322185E-01 -0.1558859E+00
 -0.6401530E+01  0.1545470E+02 -0.1027320E+00  0.1969243E+00  0.1948068E+01  0.7254400E-01 -0.1830753E+00
 -0.7885530E+01  0.1475280E+02 -0.1027320E+00  0.2150092E+00  0.1952456E+01  0.8008270E-01 -0.1995388E+00
 -0.9293580E+01  0.1390880E+02 -0.1027320E+00  0.2305129E+00  0.1957132E+01  0.8685659E-01 -0.2135231E+00
 -0.1061210E+02  0.1293090E+02 -0.1027320E+00  0.2401586E+00  0.1966172E+01  0.9249824E-01 -0.2216309E+00
 -0.1182850E+02  0.1182850E+02 -0.1027320E+00  0.2479387E+00  0.1975350E+01  0.9759079E-01 -0.2279247E+00
 -0.1293090E+02  0.1061210E+02 -0.1027320E+00  0.2551218E+00  0.1983421E+01  0.1023078E+00 -0.2337098E+00
 -0.1390880E+02  0.9293580E+01 -0.1027320E+00  0.2572485E+00  0.1995136E+01  0.1059141E+00 -0.2344333E+00
 -0.1475280E+02  0.7885520E+01 -0.1027320E+00  0.2596027E+00  0.2004009E+01  0.1089782E+00 -0.2356211E+00
 -0.1545470E+02  0.6401530E+01 -0.1027320E+00  0.2630877E+00  0.2009084E+01  0.1116518E+00 -0.2382206E+00
 -0.1600770E+02  0.4855880E+01 -0.1027320E+00  0.2666742E+00  0.2011988E+01  0.1138745E+00 -0.2411384E+00
 -0.1640660E+02  0.3263470E+01 -0.1027320E+00  0.2701104E+00  0.2013001E+01  0.1155892E+00 -0.2441285E+00
 -0.1664750E+02  0.1639630E+01 -0.1027320E+00  0.2722479E+00  0.2013495E+01  0.1166254E+00 -0.2460029E+00
 -0.1672800E+02 -0.1462410E-05 -0.1027320E+00  0.2730076E+00  0.2013599E+01  0.1169765E+00 -0.2466772E+00
 -0.1664750E+02 -0.1639630E+01 -0.1027320E+00  0.2722480E+00  0.2013494E+01  0.1166252E+00 -0.2460031E+00
 -0.1640660E+02 -0.3263470E+01 -0.1027320E+00  0.2701101E+00  0.2013001E+01  0.1155891E+00 -0.2441283E+00
 -0.1600770E+02 -0.4855890E+01 -0.1027320E+00  0.2666742E+00  0.2011987E+01  0.1138742E+00 -0.2411385E+00
 -0.1545470E+02 -0.6401530E+01 -0.1027320E+00  0.2630877E+00  0.2009084E+01  0.1116518E+00 -0.2382206E+00
 -0.1475280E+02 -0.7885530E+01 -0.1027320E+00  0.2596025E+00  0.2004009E+01  0.1089783E+00 -0.2356208E+00
 -0.1390880E+02 -0.9293580E+01 -0.1027320E+00  0.2572489E+00  0.1995137E+01  0.1059146E+00 -0.2344335E+00
 -0.1293090E+02 -0.1061210E+02 -0.1027320E+00  0.2551214E+00  0.1983418E+01  0.1023068E+00 -0.2337098E+00
 -0.1182850E+02 -0.1182850E+02 -0.1027320E+00  0.2479388E+00  0.1975348E+01  0.9759035E-01 -0.2279249E+00
 -0.1061210E+02 -0.1293090E+02 -0.1027320E+00  0.2401590E+00  0.1966174E+01  0.9249875E-01 -0.2216311E+00
 -0.9293580E+01 -0.1390880E+02 -0.1027320E+00  0.2305132E+00  0.1957134E+01  0.8685710E-01 -0.2135233E+00
 -0.7885520E+01 -0.1475280E+02 -0.1027320E+00  0.2150097E+00  0.1952460E+01  0.8008353E-01 -0.1995389E+00
 -0.6401520E+01 -0.1545470E+02 -0.1027320E+00  0.1969247E+00  0.1948069E+01  0.7254432E-01 -0.1830756E+00
 -0.4855880E+01 -0.1600770E+02 -0.1027320E+00  0.1682184E+00  0.1956087E+01  0.6322123E-01 -0.1558862E+00
 -0.3263470E+01 -0.1640660E+02 -0.1027320E+00  0.1184810E+00  0.2010273E+01  0.5040959E-01 -0.1072223E+00
 -0.1639630E+01 -0.1664750E+02 -0.1027320E+00  0.4692754E-01  0.2371440E+01  0.3368479E-01 -0.3267306E-01
  0.1994790E-06 -0.1672800E+02 -0.1027320E+00  0.4837596E-01 -0.1940121E+01  0.1746303E-01  0.4511404E-01
  0.1639640E+01 -0.1664750E+02 -0.1027320E+00  0.1231102E+00 -0.1592980E+01  0.2730779E-02  0.1230799E+00
  0.3263470E+01 -0.1640660E+02 -0.1027320E+00  0.1983761E+00 -0.1516841E+01 -0.1069824E-01  0.1980874E+00
  0.4855890E+01 -0.1600770E+02 -0.1027320E+00  0.2481514E+00 -0.1482212E+01 -0.2195359E-01  0.2471784E+00
  0.6401530E+01 -0.1545470E+02 -0.1027320E+00  0.2764642E+00 -0.1456868E+01 -0.3142897E-01  0.2746720E+00
  0.7885520E+01 -0.1475280E+02 -0.1027320E+00  0.2940669E+00 -0.1435244E+01 -0.3973936E-01  0.2913694E+00
  0.9293580E+01 -0.1390880E+02 -0.1027320E+00  0.3092256E+00 -0.1416197E+01 -0.4761582E-01  0.3055375E+00
  0.1061210E+02 -0.1293090E+02 -0.1027320E+00  0.3185011E+00 -0.1398642E+01 -0.5456093E-01  0.3137930E+00
  0.1182850E+02 -0.1182850E+02 -0.1027320E+00  0.3259339E+00 -0.1383133E+01 -0.6080757E-01  0.3202114E+00
  0.1293090E+02 -0.1061210E+02 -0.1027320E+00  0.3327982E+00 -0.1369887E+01 -0.6641319E-01  0.3261042E+00
  0.1390880E+02 -0.9293580E+01 -0.1027320E+00  0.3345314E+00 -0.1356957E+01 -0.7099206E-01  0.3269119E+00
  0.1475280E+02 -0.7885520E+01 -0.1027320E+00  0.3366341E+00 -0.1346035E+01 -0.7502688E-01  0.3281668E+00
  0.1545470E+02 -0.6401530E+01 -0.1027320E+00  0.3400122E+00 -0.1337771E+01 -0.7851628E-01  0.3308224E+00
  0.1600770E+02 -0.4855880E+01 -0.1027320E+00  0.3435421E+00 -0.1331909E+01 -0.8128944E-01  0.3337862E+00
  0.1640660E+02 -0.3263470E+01 -0.1027320E+00  0.3469676E+00 -0.1328256E+01 -0.8333096E-01  0.3368122E+00
  0.1664750E+02 -0.1639620E+01 -0.1027320E+00  0.3491065E+00 -0.1326098E+01 -0.8457569E-01  0.3387068E+00
  0.1672800E+02  0.0000000E+00 -0.2310450E+00  0.3483403E+00 -0.1325452E+01 -0.8460835E-01  0.3379088E+00
  0.1664750E+02  0.1639630E+01 -0.2310450E+00  0.3475921E+00 -0.1326150E+01 -0.8419143E-01  0.3372419E+00
  0.1640660E+02  0.3263470E+01 -0.2310450E+00  0.3454921E+00 -0.1328316E+01 -0.8295664E-01  0.3353848E+00
  0.1600770E+02  0.4855880E+01 -0.2310450E+00  0.3421269E+00 -0.1331996E+01 -0.8092584E-01  0.3324181E+00
  0.1545470E+02  0.6401530E+01 -0.2310450E+00  0.3386365E+00 -0.1337862E+01 -0.7816852E-01  0.3294910E+00
  0.1475280E+02  0.7885530E+01 -0.2310450E+00  0.3352676E+00 -0.1346112E+01 -0.7469726E-01  0.3268405E+00
  0.1390880E+02  0.9293580E+01 -0.2310450E+00  0.3331077E+00 -0.1357003E+01 -0.7067505E-01  0.3255238E+00
  0.1293090E+02  0.1061210E+02 -0.2310450E+00  0.3312875E+00 -0.1369906E+01 -0.6610585E-01  0.3246250E+00
  0.1182850E+02  0.1182850E+02 -0.2310450E+00  0.3245303E+00 -0.1383183E+01 -0.6052970E-01  0.3188355E+00
  0.1061210E+02  0.1293090E+02 -0.2310450E+00  0.3171246E+00 -0.1398688E+01 -0.5431071E-01  0.3124394E+00
  0.9293580E+01  0.1390880E+02 -0.2310450E+00  0.3078414E+00 -0.1416227E+01 -0.4739359E-01  0.3041713E+00
  0.7885520E+01  0.1475280E+02 -0.2310450E+00  0.2928725E+00 -0.1435286E+01 -0.3956596E-01  0.2901876E+00
  0.6401530E+01  0.1545470E+02 -0.2310450E+00  0.2752734E+00 -0.1456913E+01 -0.3128124E-01  0.2734903E+00
  0.4855880E+01  0.1600770E+02 -0.2310450E+00  0.2470599E+00 -0.1482254E+01 -0.2184680E-01  0.2460921E+00
  0.3263470E+01  0.1640660E+02 -0.2310450E+00  0.1975948E+00 -0.1516864E+01 -0.1065160E-01  0.1973075E+00
  0.1639630E+01  0.1664750E+02 -0.2310450E+00  0.1226816E+00 -0.1592943E+01  0.2716750E-02  0.1226515E+00
 -0.7312040E-06  0.1672800E+02 -0.2310450E+00  0.4815874E-01 -0.1940324E+01  0.1739371E-01  0.4490793E-01
 -0.1639630E+01  0.1664750E+02 -0.2310450E+00  0.4682583E-01  0.2369832E+01  0.3355930E-01 -0.3265626E-01
 -0.3263470E+01  0.1640660E+02 -0.2310450E+00  0.1180627E+00  0.2010044E+01  0.5020721E-01 -0.1068553E+00
 -0.4855880E+01  0.1600770E+02 -0.2310450E+00  0.1674932E+00  0.1956087E+01  0.6294878E-01 -0.1552142E+00
 -0.6401530E+01  0.1545470E+02 -0.2310450E+00  0.1960980E+00  0.1948025E+01  0.7223189E-01 -0.1823101E+00
 -0.7885530E+01  0.1475280E+02 -0.2310450E+00  0.2141740E+00  0.1952319E+01  0.7974435E-01 -0.1987746E+00
 -0.9293580E+01  0.1390880E+02 -0.2310450E+00  0.2294890E+00  0.1957131E+01  0.8647039E-01 -0.2125748E+00
 -0.1061210E+02  0.1293090E+02 -0.2310450E+00  0.2391403E+00  0.1966122E+01  0.9209510E-01 -0.2206956E+00
 -0.1182850E+02  0.1182850E+02 -0.2310450E+00  0.2468911E+00  0.1975287E+01  0.9716421E-01 -0.2269677E+00
 -0.1293090E+02  0.1061210E+02 -0.2310450E+00  0.2539656E+00  0.1983428E+01  0.1018455E+00 -0.2326500E+00
 -0.1390880E+02  0.9293580E+01 -0.2310450E+00  0.2561734E+00  0.1995029E+01  0.1054466E+00 -0.2334649E+00
 -0.1475280E+02  0.7885520E+01 -0.2310450E+00  0.2585828E+00  0.2003822E+01  0.1085063E+00 -0.2347157E+00
 -0.1545470E+02  0.6401530E+01 -0.2310450E+00  0.2620577E+00  0.2008896E+01  0.1111699E+00 -0.2373088E+00
 -0.1600770E+02  0.4855880E+01 -0.2310450E+00  0.2656048E+00  0.2011822E+01  0.1133780E+00 -0.2401903E+00
 -0.1640660E+02  0.3263470E+01 -0.2310450E+00  0.2689821E+00  0.2012883E+01  0.1150778E+00 -0.2431224E+00
 -0.1664750E+02  0.1639630E+01 -0.2310450E+00  0.2710822E+00  0.2013414E+01  0.1161061E+00 -0.2449590E+00
 -0.1672800E+02 -0.1462410E-05 -0.2310450E+00  0.2718284E+00  0.2013534E+01  0.1164552E+00 -0.2456193E+00
 -0.1664750E+02 -0.1639630E+01 -0.2310450E+00  0.2710822E+00  0.2013413E+01  0.1161060E+00 -0.2449591E+00
 -0.1640660E+02 -0.3263470E+01 -0.2310450E+00  0.2689823E+00  0.2012883E+01  0.1150778E+00 -0.2431225E+00
 -0.1600770E+02 -0.4855890E+01 -0.2310450E+00  0.2656048E+00  0.2011822E+01  0.1133779E+00 -0.2401902E+00
 -0.1545470E+02 -0.6401530E+01 -0.2310450E+00  0.2620576E+00  0.2008895E+01  0.1111697E+00 -0.2373089E+00
 -0.1475280E+02 -0.7885530E+01 -0.2310450E+00  0.2585829E+00  0.2003821E+01  0.1085061E+00 -0.2347158E+00
 -0.1390880E+02 -0.9293580E+01 -0.2310450E+00  0.2561735E+00  0.1995028E+01  0.1054463E+00 -0.2334651E+00
 -0.1293090E+02 -0.1061210E+02 -0.2310450E+00  0.2539659E+00  0.1983430E+01  0.1018462E+00 -0.2326500E+00
 -0.1182850E+02 -0.1182850E+02 -0.2310450E+00  0.2468914E+00  0.1975290E+01  0.9716494E-01 -0.2269677E+00
 -0.1061210E+02 -0.1293090E+02 -0.2310450E+00  0.2391398E+00  0.1966118E+01  0.9209403E-01 -0.2206956E+00
 -0.9293580E+01 -0.1390880E+02 -0.2310450E+00  0.2294891E+00  0.1957130E+01  0.8647033E-01 -0.2125750E+00
 -0.7885520E+01 -0.1475280E+02 -0.2310450E+00  0.2141743E+00  0.1952318E+01  0.7974416E-01 -0.1987750E+00
 -0.6401520E+01 -0.1545470E+02 -0.2310450E+00  0.1960980E+00  0.1948026E+01  0.7223196E-01 -0.1823101E+00
 -0.4855880E+01 -0.1600770E+02 -0.2310450E+00  0.1674933E+00  0.1956088E+01  0.6294898E-01 -0.1552142E+00
 -0.3263470E+01 -0.1640660E+02 -0.2310450E+00  0.1180626E+00  0.2010042E+01  0.5020693E-01 -0.1068552E+00
 -0.1639630E+01 -0.1664750E+02 -0.2310450E+00  0.4682515E-01  0.2369816E+01  0.3355829E-01 -0.3265633E-01
  0.1994790E-06 -0.1672800E+02 -0.2310450E+00  0.4815934E-01 -0.1940341E+01  0.1739474E-01  0.4490819E-01
  0.1639640E+01 -0.1664750E+02 -0.2310450E+00  0.1226820E+00 -0.1592942E+01  0.2716679E-02  0.1226519E+00
  0.3263470E+01 -0.1640660E+02 -0.2310450E+00  0.1975941E+00 -0.1516867E+01 -0.1065086E-01  0.1973068E+00
  0.4855890E+01 -0.1600770E+02 -0.2310450E+00  0.2470596E+00 -0.1482254E+01 -0.2184678E-01  0.2460918E+00
  0.6401530E+01 -0.1545470E+02 -0.2310450E+00  0.2752734E+00 -0.1456910E+01 -0.3128204E-01  0.2734901E+00
  0.7885520E+01 -0.1475280E+02 -0.2310450E+00  0.2928727E+00 -0.1435289E+01 -0.3956515E-01  0.2901879E+00
  0.9293580E+01 -0.1390880E+02 -0.2310450E+00  0.3078414E+00 -0.1416228E+01 -0.4739343E-01  0.3041714E+00
  0.1061210E+02 -0.1293090E+02 -0.2310450E+00  0.3171250E+00 -0.1398686E+01 -0.5431133E-01  0.3124397E+00
  0.1182850E+02 -0.1182850E+02 -0.2310450E+00  0.3245298E+00 -0.1383182E+01 -0.6052984E-01  0.3188349E+00
  0.1293090E+02 -0.1061210E+02 -0.2310450E+00  0.3312875E+00 -0.1369905E+01 -0.6610598E-01  0.3246250E+00
  0.1390880E+02 -0.9293580E+01 -0.2310450E+00  0.3331073E+00 -0.1357002E+01 -0.7067505E-01  0.3255235E+00
  0.1475280E+02 -0.7885520E+01 -0.2310450E+00  0.3352676E+00 -0.1346114E+01 -0.7469647E-01  0.3268406E+00
  0.1545470E+02 -0.6401530E+01 -0.2310450E+00  0.3386363E+00 -0.1337863E+01 -0.7816827E-01  0.3294909E+00
  0.1600770E+02 -0.4855880E+01 -0.2310450E+00  0.3421269E+00 -0.1331995E+01 -0.8092619E-01  0.3324181E+00
  0.1640660E+02 -0.3263470E+01 -0.2310450E+00  0.3454918E+00 -0.1328317E+01 -0.8295610E-01  0.3353846E+00
  0.1664750E+02 -0.1639620E+01 -0.2310450E+00  0.3475921E+00 -0.1326151E+01 -0.8419104E-01  0.3372419E+00
  0.1672800E+02  0.0000000E+00 -0.4105000E+00  0.3462178E+00 -0.1325521E+01 -0.8406973E-01  0.3358557E+00
  0.1664750E+02  0.1639630E+01 -0.4105000E+00  0.3454905E+00 -0.1326225E+01 -0.8365721E-01  0.3352091E+00
  0.1640660E+02  0.3263470E+01 -0.4105000E+00  0.3434444E+00 -0.1328408E+01 -0.8243418E-01  0.3334047E+00
  0.1600770E+02  0.4855880E+01 -0.4105000E+00  0.3401609E+00 -0.1332109E+01 -0.8042322E-01  0.3305171E+00
  0.1545470E+02  0.6401530E+01 -0.4105000E+00  0.3367240E+00 -0.1337983E+01 -0.7768744E-01  0.3276395E+00
  0.1475280E+02  0.7885530E+01 -0.4105000E+00  0.3333699E+00 -0.1346225E+01 -0.7423763E-01  0.3249989E+00
  0.1390880E+02  0.9293580E+01 -0.4105000E+00  0.3311300E+00 -0.1357071E+01 -0.7023326E-01  0.3235960E+00
  0.1293090E+02  0.1061210E+02 -0.4105000E+00  0.3291904E+00 -0.1369930E+01 -0.6567961E-01  0.3225717E+00
  0.1182850E+02  0.1182850E+02 -0.4105000E+00  0.3225830E+00 -0.1383246E+01 -0.6014654E-01  0.3169262E+00
  0.1061210E+02  0.1293090E+02 -0.4105000E+00  0.3152179E+00 -0.1398742E+01 -0.5396746E-01  0.3105637E+00
  0.9293580E+01  0.1390880E+02 -0.4105000E+00  0.3059273E+00 -0.1416251E+01 -0.4709171E-01  0.3022811E+00
  0.7885520E+01  0.1475280E+02 -0.4105000E+00  0.2912287E+00 -0.1435321E+01 -0.3933378E-01  0.2885602E+00
  0.6401530E+01  0.1545470E+02 -0.4105000E+00  0.2736494E+00 -0.1456932E+01 -0.3109153E-01  0.2718774E+00
  0.4855880E+01  0.1600770E+02 -0.4105000E+00  0.2455582E+00 -0.1482261E+01 -0.2171227E-01  0.2445965E+00
  0.3263470E+01  0.1640660E+02 -0.4105000E+00  0.1965072E+00 -0.1516841E+01 -0.1059740E-01  0.1962212E+00
  0.1639630E+01  0.1664750E+02 -0.4105000E+00  0.1220919E+00 -0.1592786E+01  0.2684572E-02  0.1220624E+00
 -0.7312040E-06  0.1672800E+02 -0.4105000E+00  0.4785484E-01 -0.1940516E+01  0.1729254E-01  0.4462123E-01
 -0.1639630E+01  0.1664750E+02 -0.4105000E+00  0.4668421E-01  0.2367247E+01  0.3337354E-01 -0.3264387E-01
 -0.3263470E+01  0.1640660E+02 -0.4105000E+00  0.1174791E+00  0.2009592E+01  0.4991091E-01 -0.1063496E+00
 -0.4855880E+01  0.1600770E+02 -0.4105000E+00  0.1665007E+00  0.1955967E+01  0.6255716E-01 -0.1543020E+00
 -0.6401530E+01  0.1545470E+02 -0.4105000E+00  0.1949795E+00  0.1947873E+01  0.7179216E-01 -0.1812813E+00
 -0.7885530E+01  0.1475280E+02 -0.4105000E+00  0.2130281E+00  0.1952052E+01  0.7926476E-01 -0.1977324E+00
 -0.9293580E+01  0.1390880E+02 -0.4105000E+00  0.2280768E+00  0.1957080E+01  0.8592758E-01 -0.2112711E+00
 -0.1061210E+02  0.1293090E+02 -0.4105000E+00  0.2377336E+00  0.1966008E+01  0.9152827E-01 -0.2194080E+00
 -0.1182850E+02  0.1182850E+02 -0.4105000E+00  0.2454424E+00  0.1975182E+01  0.9657031E-01 -0.2256461E+00