 VARIABLES="X" "Y" "Z" "abs(eta) (m)" "angle(phi) (rad)" "PRE1" "PRE2"
ZONE N=   3200 ,E =    3136 ,F=FEPOINT,ET=QUADRILATERAL
  0.1672800E+02  0.0000000E+00  0.0000000E+00  0.4652436E+00 -0.1145190E+01 -0.1920867E+00  0.4237384E+00
  0.1664750E+02  0.1639630E+01  0.0000000E+00  0.4649750E+00 -0.1144128E+01 -0.1924252E+00  0.4232899E+00
  0.1640660E+02  0.3263470E+01  0.0000000E+00  0.4641932E+00 -0.1146066E+01 -0.1912823E+00  0.4229496E+00
  0.1600770E+02  0.4855880E+01  0.0000000E+00  0.4609426E+00 -0.1149725E+01 -0.1884049E+00  0.4206800E+00
  0.1545470E+02  0.6401530E+01  0.0000000E+00  0.4547631E+00 -0.1154977E+01 -0.1836969E+00  0.4160107E+00
  0.1475280E+02  0.7885530E+01  0.0000000E+00  0.4458863E+00 -0.1161983E+01 -0.1772490E+00  0.4091422E+00
  0.1390880E+02  0.9293580E+01  0.0000000E+00  0.4364001E+00 -0.1171722E+01 -0.1695701E+00  0.4021083E+00
  0.1293090E+02  0.1061210E+02  0.0000000E+00  0.4271232E+00 -0.1184557E+01 -0.1609006E+00  0.3956580E+00
  0.1182850E+02  0.1182850E+02  0.0000000E+00  0.4164183E+00 -0.1199847E+01 -0.1509519E+00  0.3880950E+00
  0.1061210E+02  0.1293090E+02  0.0000000E+00  0.4027226E+00 -0.1216789E+01 -0.1396076E+00  0.3777502E+00
  0.9293580E+01  0.1390880E+02  0.0000000E+00  0.3870700E+00 -0.1236383E+01 -0.1270423E+00  0.3656275E+00
  0.7885520E+01  0.1475280E+02  0.0000000E+00  0.3664720E+00 -0.1258416E+01 -0.1126259E+00  0.3487365E+00
  0.6401530E+01  0.1545470E+02  0.0000000E+00  0.3351885E+00 -0.1283273E+01 -0.9505223E-01  0.3214287E+00
  0.4855880E+01  0.1600770E+02  0.0000000E+00  0.2927691E+00 -0.1312431E+01 -0.7480273E-01  0.2830517E+00
  0.3263470E+01  0.1640660E+02  0.0000000E+00  0.2217653E+00 -0.1355172E+01 -0.4744837E-01  0.2166299E+00
  0.1639630E+01  0.1664750E+02  0.0000000E+00  0.1186149E+00 -0.1474944E+01 -0.1135212E-01  0.1180705E+00
 -0.7312040E-06  0.1672800E+02  0.0000000E+00  0.3342587E-01 -0.2506042E+01  0.2689930E-01  0.1984229E-01
 -0.1639630E+01  0.1664750E+02  0.0000000E+00  0.9737083E-01  0.2310607E+01  0.6564234E-01 -0.7191774E-01
 -0.3263470E+01  0.1640660E+02  0.0000000E+00  0.1849094E+00  0.2157704E+01  0.1024007E+00 -0.1539662E+00
 -0.4855880E+01  0.1600770E+02  0.0000000E+00  0.2429150E+00  0.2128406E+01  0.1285407E+00 -0.2061188E+00
 -0.6401530E+01  0.1545470E+02  0.0000000E+00  0.2768302E+00  0.2127777E+01  0.1463396E+00 -0.2349887E+00
 -0.7885530E+01  0.1475280E+02  0.0000000E+00  0.3022039E+00  0.2132113E+01  0.1608635E+00 -0.2558323E+00
 -0.9293580E+01  0.1390880E+02  0.0000000E+00  0.3180888E+00  0.2142576E+01  0.1721272E+00 -0.2674934E+00
 -0.1061210E+02  0.1293090E+02  0.0000000E+00  0.3298536E+00  0.2154095E+01  0.1816769E+00 -0.2753123E+00
 -0.1182850E+02  0.1182850E+02  0.0000000E+00  0.3399552E+00  0.2164220E+01  0.1901039E+00 -0.2818334E+00
 -0.1293090E+02  0.1061210E+02  0.0000000E+00  0.3476868E+00  0.2173028E+01  0.1969586E+00 -0.2865195E+00
 -0.1390880E+02  0.9293580E+01  0.0000000E+00  0.3541509E+00  0.2180433E+01  0.2027761E+00 -0.2903527E+00
 -0.1475280E+02  0.7885520E+01  0.0000000E+00  0.3606442E+00  0.2185335E+01  0.2079409E+00 -0.2946606E+00
 -0.1545470E+02  0.6401530E+01  0.0000000E+00  0.3665751E+00  0.2187944E+01  0.2121413E+00 -0.2989538E+00
 -0.1600770E+02  0.4855880E+01  0.0000000E+00  0.3700677E+00  0.2189992E+01  0.2147802E+00 -0.3013629E+00
 -0.1640660E+02  0.3263470E+01  0.0000000E+00  0.3708103E+00  0.2191893E+01  0.2157847E+00 -0.3015580E+00
 -0.1664750E+02  0.1639630E+01  0.0000000E+00  0.3691790E+00  0.2193266E+01  0.2152474E+00 -0.2999362E+00
 -0.1672800E+02 -0.1462410E-05  0.0000000E+00  0.3670711E+00  0.2191541E+01  0.2135036E+00 -0.2985924E+00
 -0.1664750E+02 -0.1639630E+01  0.0000000E+00  0.3651938E+00  0.2185933E+01  0.2107426E+00 -0.2982517E+00
 -0.1640660E+02 -0.3263470E+01  0.0000000E+00  0.3627917E+00  0.2177564E+01  0.2068692E+00 -0.2980318E+00
 -0.1600770E+02 -0.4855890E+01  0.0000000E+00  0.3580564E+00  0.2168898E+01  0.2016124E+00 -0.2959000E+00
 -0.1545470E+02 -0.6401530E+01  0.0000000E+00  0.3506350E+00  0.2160633E+01  0.1950320E+00 -0.2913888E+00
 -0.1475280E+02 -0.7885530E+01  0.0000000E+00  0.3407505E+00  0.2152517E+01  0.1872296E+00 -0.2847032E+00
 -0.1390880E+02 -0.9293580E+01  0.0000000E+00  0.3302447E+00  0.2141737E+01  0.1784720E+00 -0.2778656E+00
 -0.1293090E+02 -0.1061210E+02  0.0000000E+00  0.3198209E+00  0.2127014E+01  0.1688582E+00 -0.2716105E+00
 -0.1182850E+02 -0.1182850E+02  0.0000000E+00  0.3080112E+00  0.2110325E+01  0.1582351E+00 -0.2642585E+00
 -0.1061210E+02 -0.1293090E+02  0.0000000E+00  0.2932337E+00  0.2093011E+01  0.1462651E+00 -0.2541506E+00
 -0.9293580E+01 -0.1390880E+02  0.0000000E+00  0.2765357E+00  0.2073769E+01  0.1332991E+00 -0.2422877E+00
 -0.7885520E+01 -0.1475280E+02  0.0000000E+00  0.2552114E+00  0.2056309E+01  0.1190975E+00 -0.2257181E+00
 -0.6401520E+01 -0.1545470E+02  0.0000000E+00  0.2239326E+00  0.2049195E+01  0.1030891E+00 -0.1987925E+00
 -0.4855880E+01 -0.1600770E+02  0.0000000E+00  0.1820292E+00  0.2056916E+01  0.8504371E-01 -0.1609416E+00
 -0.3263470E+01 -0.1640660E+02  0.0000000E+00  0.1143606E+00  0.2157201E+01  0.6328371E-01 -0.9525505E-01
 -0.1639630E+01 -0.1664750E+02  0.0000000E+00  0.3779180E-01 -0.3074284E+01  0.3770623E-01  0.2541802E-02
  0.1994790E-06 -0.1672800E+02  0.0000000E+00  0.1013640E+00 -0.1695431E+01  0.1260078E-01  0.1005778E+00
  0.1639640E+01 -0.1664750E+02  0.0000000E+00  0.1931813E+00 -0.1510682E+01 -0.1160597E-01  0.1928324E+00
  0.3263470E+01 -0.1640660E+02  0.0000000E+00  0.2781850E+00 -0.1443154E+01 -0.3541179E-01  0.2759219E+00
  0.4855890E+01 -0.1600770E+02  0.0000000E+00  0.3339514E+00 -0.1398842E+01 -0.5714174E-01  0.3290263E+00
  0.6401530E+01 -0.1545470E+02  0.0000000E+00  0.3666305E+00 -0.1360902E+01 -0.7638989E-01  0.3585840E+00
  0.7885520E+01 -0.1475280E+02  0.0000000E+00  0.3914129E+00 -0.1327963E+01 -0.9411675E-01  0.3799291E+00
  0.9293580E+01 -0.1390880E+02  0.0000000E+00  0.4071272E+00 -0.1297217E+01 -0.1099972E+00  0.3919862E+00
  0.1061210E+02 -0.1293090E+02  0.0000000E+00  0.4189886E+00 -0.1269496E+01 -0.1243400E+00  0.4001138E+00
  0.1182850E+02 -0.1182850E+02  0.0000000E+00  0.4294543E+00 -0.1245113E+01 -0.1374067E+00  0.4068788E+00
  0.1293090E+02 -0.1061210E+02  0.0000000E+00  0.4379141E+00 -0.1223211E+01 -0.1491662E+00  0.4117259E+00
  0.1390880E+02 -0.9293580E+01  0.0000000E+00  0.4452345E+00 -0.1204294E+01 -0.1595508E+00  0.4156649E+00
  0.1475280E+02 -0.7885520E+01  0.0000000E+00  0.4526181E+00 -0.1189053E+01 -0.1686177E+00  0.4200372E+00
  0.1545470E+02 -0.6401530E+01  0.0000000E+00  0.4595411E+00 -0.1176905E+01 -0.1763647E+00  0.4243507E+00
  0.1600770E+02 -0.4855880E+01  0.0000000E+00  0.4641809E+00 -0.1166395E+01 -0.1826405E+00  0.4267392E+00
  0.1640660E+02 -0.3263470E+01  0.0000000E+00  0.4661809E+00 -0.1157251E+01 -0.1873387E+00  0.4268827E+00
  0.1664750E+02 -0.1639620E+01  0.0000000E+00  0.4658728E+00 -0.1149720E+01 -0.1904223E+00  0.4251785E+00
  0.1672800E+02  0.0000000E+00 -0.2568960E-01  0.4646994E+00 -0.1145179E+01 -0.1918664E+00  0.4232408E+00
  0.1664750E+02  0.1639630E+01 -0.2568960E-01  0.4644271E+00 -0.1144121E+01 -0.1922016E+00  0.4227896E+00
  0.1640660E+02  0.3263470E+01 -0.2568960E-01  0.4636402E+00 -0.1146060E+01 -0.1910571E+00  0.4224445E+00
  0.1600770E+02  0.4855880E+01 -0.2568960E-01  0.4603982E+00 -0.1149718E+01 -0.1881854E+00  0.4201818E+00
  0.1545470E+02  0.6401530E+01 -0.2568960E-01  0.4542420E+00 -0.1154973E+01 -0.1834881E+00  0.4155332E+00
  0.1475280E+02  0.7885530E+01 -0.2568960E-01  0.4453982E+00 -0.1161992E+01 -0.1770515E+00  0.4086958E+00
  0.1390880E+02  0.9293580E+01 -0.2568960E-01  0.4359394E+00 -0.1171727E+01 -0.1693891E+00  0.4016846E+00
  0.1293090E+02  0.1061210E+02 -0.2568960E-01  0.4266708E+00 -0.1184572E+01 -0.1607242E+00  0.3952413E+00
  0.1182850E+02  0.1182850E+02 -0.2568960E-01  0.4159719E+00 -0.1199852E+01 -0.1507882E+00  0.3876797E+00
  0.1061210E+02  0.1293090E+02 -0.2568960E-01  0.4023000E+00 -0.1216800E+01 -0.1394569E+00  0.3773553E+00
  0.9293580E+01  0.1390880E+02 -0.2568960E-01  0.3866581E+00 -0.1236395E+01 -0.1269026E+00  0.3652399E+00
  0.7885520E+01  0.1475280E+02 -0.2568960E-01  0.3660713E+00 -0.1258432E+01 -0.1124971E+00  0.3483570E+00
  0.6401530E+01  0.1545470E+02 -0.2568960E-01  0.3348441E+00 -0.1283275E+01 -0.9495363E-01  0.3210987E+00
  0.4855880E+01  0.1600770E+02 -0.2568960E-01  0.2924609E+00 -0.1312439E+01 -0.7472169E-01  0.2827544E+00
  0.3263470E+01  0.1640660E+02 -0.2568960E-01  0.2215343E+00 -0.1355160E+01 -0.4740159E-01  0.2164036E+00
  0.1639630E+01  0.1664750E+02 -0.2568960E-01  0.1184628E+00 -0.1474951E+01 -0.1133677E-01  0.1179191E+00
 -0.7312040E-06  0.1672800E+02 -0.2568960E-01  0.3338191E-01 -0.2506407E+01  0.2687116E-01  0.1980638E-01
 -0.1639630E+01  0.1664750E+02 -0.2568960E-01  0.9726053E-01  0.2310605E+01  0.6556788E-01 -0.7183636E-01
 -0.3263470E+01  0.1640660E+02 -0.2568960E-01  0.1847287E+00  0.2157661E+01  0.1022941E+00 -0.1538200E+00
 -0.4855880E+01  0.1600770E+02 -0.2568960E-01  0.2426702E+00  0.2128389E+01  0.1284078E+00 -0.2059133E+00
 -0.6401530E+01  0.1545470E+02 -0.2568960E-01  0.2765558E+00  0.2127740E+01  0.1461859E+00 -0.2347612E+00
 -0.7885530E+01  0.1475280E+02 -0.2568960E-01  0.3018789E+00  0.2132101E+01  0.1606875E+00 -0.2555589E+00
 -0.9293580E+01  0.1390880E+02 -0.2568960E-01  0.3177574E+00  0.2142564E+01  0.1719447E+00 -0.2672167E+00
 -0.1061210E+02  0.1293090E+02 -0.2568960E-01  0.3295131E+00  0.2154069E+01  0.1814821E+00 -0.2750330E+00
 -0.1182850E+02  0.1182850E+02 -0.2568960E-01  0.3395975E+00  0.2164201E+01  0.1898986E+00 -0.2815404E+00
 -0.1293090E+02  0.1061210E+02 -0.2568960E-01  0.3473246E+00  0.2173010E+01  0.1967483E+00 -0.2862246E+00
 -0.1390880E+02  0.9293580E+01 -0.2568960E-01  0.3537808E+00  0.2180414E+01  0.2025587E+00 -0.2900532E+00
 -0.1475280E+02  0.7885520E+01 -0.2568960E-01  0.3602516E+00  0.2185324E+01  0.2077111E+00 -0.2943421E+00
 -0.1545470E+02  0.6401530E+01 -0.2568960E-01  0.3661562E+00  0.2187958E+01  0.2119028E+00 -0.2986094E+00
 -0.1600770E+02  0.4855880E+01 -0.2568960E-01  0.3696303E+00  0.2190022E+01  0.2145352E+00 -0.3010003E+00
 -0.1640660E+02  0.3263470E+01 -0.2568960E-01  0.3703672E+00  0.2191924E+01  0.2155361E+00 -0.3011911E+00
 -0.1664750E+02  0.1639630E+01 -0.2568960E-01  0.3687428E+00  0.2193294E+01  0.2150014E+00 -0.2995758E+00
 -0.1672800E+02 -0.1462410E-05 -0.2568960E-01  0.3666402E+00  0.2191566E+01  0.2132606E+00 -0.2982364E+00
 -0.1664750E+02 -0.1639630E+01 -0.2568960E-01  0.3647616E+00  0.2185964E+01  0.2105021E+00 -0.2978924E+00
 -0.1640660E+02 -0.3263470E+01 -0.2568960E-01  0.3623580E+00  0.2177596E+01  0.2066317E+00 -0.2976688E+00
 -0.1600770E+02 -0.4855890E+01 -0.2568960E-01  0.3576330E+00  0.2168933E+01  0.2013845E+00 -0.2955430E+00
 -0.1545470E+02 -0.6401530E+01 -0.2568960E-01  0.3502333E+00  0.2160646E+01  0.1948123E+00 -0.2910525E+00
 -0.1475280E+02 -0.7885530E+01 -0.2568960E-01  0.3403811E+00  0.2152506E+01  0.1870236E+00 -0.2843966E+00
 -0.1390880E+02 -0.9293580E+01 -0.2568960E-01  0.3299016E+00  0.2141705E+01  0.1782779E+00 -0.2775825E+00
 -0.1293090E+02 -0.1061210E+02 -0.2568960E-01  0.3194881E+00  0.2126979E+01  0.1686732E+00 -0.2713338E+00
 -0.1182850E+02 -0.1182850E+02 -0.2568960E-01  0.3076847E+00  0.2110296E+01  0.1580597E+00 -0.2639830E+00
 -0.1061210E+02 -0.1293090E+02 -0.2568960E-01  0.2929326E+00  0.2092971E+01  0.1461049E+00 -0.2538953E+00
 -0.9293580E+01 -0.1390880E+02 -0.2568960E-01  0.2762479E+00  0.2073738E+01  0.1331530E+00 -0.2420397E+00
 -0.7885520E+01 -0.1475280E+02 -0.2568960E-01  0.2549392E+00  0.2056303E+01  0.1189691E+00 -0.2254781E+00
 -0.6401520E+01 -0.1545470E+02 -0.2568960E-01  0.2237124E+00  0.2049151E+01  0.1029790E+00 -0.1986015E+00
 -0.4855880E+01 -0.1600770E+02 -0.2568960E-01  0.1818465E+00  0.2056878E+01  0.8495229E-01 -0.1607833E+00
 -0.3263470E+01 -0.1640660E+02 -0.2568960E-01  0.1142497E+00  0.2157125E+01  0.6321511E-01 -0.9516741E-01
 -0.1639630E+01 -0.1664750E+02 -0.2568960E-01  0.3774961E-01 -0.3073847E+01  0.3766302E-01  0.2555418E-02
  0.1994790E-06 -0.1672800E+02 -0.2568960E-01  0.1012607E+00 -0.1695433E+01  0.1258810E-01  0.1004752E+00
  0.1639640E+01 -0.1664750E+02 -0.2568960E-01  0.1929611E+00 -0.1510696E+01 -0.1158996E-01  0.1926127E+00
  0.3263470E+01 -0.1640660E+02 -0.2568960E-01  0.2778973E+00 -0.1443172E+01 -0.3537037E-01  0.2756371E+00
  0.4855890E+01 -0.1600770E+02 -0.2568960E-01  0.3336008E+00 -0.1398859E+01 -0.5707631E-01  0.3286819E+00
  0.6401530E+01 -0.1545470E+02 -0.2568960E-01  0.3662526E+00 -0.1360918E+01 -0.7630531E-01  0.3582157E+00
  0.7885520E+01 -0.1475280E+02 -0.2568960E-01  0.3909844E+00 -0.1327970E+01 -0.9401090E-01  0.3795138E+00
  0.9293580E+01 -0.1390880E+02 -0.2568960E-01  0.4066907E+00 -0.1297232E+01 -0.1098735E+00  0.3915675E+00
  0.1061210E+02 -0.1293090E+02 -0.2568960E-01  0.4185460E+00 -0.1269512E+01 -0.1242023E+00  0.3996931E+00
  0.1182850E+02 -0.1182850E+02 -0.2568960E-01  0.4289920E+00 -0.1245128E+01 -0.1372525E+00  0.4064430E+00
  0.1293090E+02 -0.1061210E+02 -0.2568960E-01  0.4374477E+00 -0.1223226E+01 -0.1490009E+00  0.4112897E+00
  0.1390880E+02 -0.9293580E+01 -0.2568960E-01  0.4447580E+00 -0.1204319E+01 -0.1593698E+00  0.4152240E+00
  0.1475280E+02 -0.7885520E+01 -0.2568960E-01  0.4521206E+00 -0.1189063E+01 -0.1684285E+00  0.4195770E+00
  0.1545470E+02 -0.6401530E+01 -0.2568960E-01  0.4590156E+00 -0.1176896E+01 -0.1761668E+00  0.4238638E+00
  0.1600770E+02 -0.4855880E+01 -0.2568960E-01  0.4636352E+00 -0.1166385E+01 -0.1824302E+00  0.4262356E+00
  0.1640660E+02 -0.3263470E+01 -0.2568960E-01  0.4656283E+00 -0.1157234E+01 -0.1871237E+00  0.4263735E+00
  0.1664750E+02 -0.1639620E+01 -0.2568960E-01  0.4653244E+00 -0.1149712E+01 -0.1902015E+00  0.4246765E+00
  0.1672800E+02  0.0000000E+00 -0.1027320E+00  0.4630609E+00 -0.1145153E+01 -0.1912009E+00  0.4217435E+00
  0.1664750E+02  0.1639630E+01 -0.1027320E+00  0.4627776E+00 -0.1144088E+01 -0.1915329E+00  0.4212817E+00
  0.1640660E+02  0.3263470E+01 -0.1027320E+00  0.4619785E+00 -0.1146022E+01 -0.1903882E+00  0.4209233E+00
  0.1600770E+02  0.4855880E+01 -0.1027320E+00  0.4587601E+00 -0.1149696E+01 -0.1875253E+00  0.4186826E+00
  0.1545470E+02  0.6401530E+01 -0.1027320E+00  0.4526683E+00 -0.1154975E+01 -0.1828516E+00  0.4140940E+00
  0.1475280E+02  0.7885530E+01 -0.1027320E+00  0.4439229E+00 -0.1162013E+01 -0.1764564E+00  0.4073459E+00
  0.1390880E+02  0.9293580E+01 -0.1027320E+00  0.4345388E+00 -0.1171772E+01 -0.1688266E+00  0.4004018E+00
  0.1293090E+02  0.1061210E+02 -0.1027320E+00  0.4253009E+00 -0.1184607E+01 -0.1601944E+00  0.3939779E+00
  0.1182850E+02  0.1182850E+02 -0.1027320E+00  0.4146191E+00 -0.1199874E+01 -0.1502890E+00  0.3864223E+00
  0.1061210E+02  0.1293090E+02 -0.1027320E+00  0.4010224E+00 -0.1216836E+01 -0.1390005E+00  0.3761620E+00
  0.9293580E+01  0.1390880E+02 -0.1027320E+00  0.3854150E+00 -0.1236423E+01 -0.1264843E+00  0.3640693E+00
  0.7885520E+01  0.1475280E+02 -0.1027320E+00  0.3648649E+00 -0.1258450E+01 -0.1121202E+00  0.3472109E+00
  0.6401530E+01  0.1545470E+02 -0.1027320E+00  0.3338043E+00 -0.1283291E+01 -0.9465375E-01  0.3201031E+00
  0.4855880E+01  0.1600770E+02 -0.1027320E+00  0.2915273E+00 -0.1312459E+01 -0.7447743E-01  0.2818533E+00
  0.3263470E+01  0.1640660E+02 -0.1027320E+00  0.2208550E+00 -0.1355168E+01 -0.4725450E-01  0.2157405E+00
  0.1639630E+01  0.1664750E+02 -0.1027320E+00  0.1180062E+00 -0.1475055E+01 -0.1128080E-01  0.1174658E+00
 -0.7312040E-06  0.1672800E+02 -0.1027320E+00  0.3325497E-01 -0.2507349E+01  0.2678754E-01  0.1970585E-01
 -0.1639630E+01  0.1664750E+02 -0.1027320E+00  0.9692632E-01  0.2310634E+01  0.6534459E-01 -0.7158767E-01
 -0.3263470E+01  0.1640660E+02 -0.1027320E+00  0.1842029E+00  0.2157544E+01  0.1019850E+00 -0.1533942E+00
 -0.4855880E+01  0.1600770E+02 -0.1027320E+00  0.2419240E+00  0.2128337E+01  0.1280023E+00 -0.2052867E+00
 -0.6401530E+01  0.1545470E+02 -0.1027320E+00  0.2757295E+00  0.2127654E+01  0.1457288E+00 -0.2340724E+00
 -0.7885530E+01  0.1475280E+02 -0.1027320E+00  0.3008978E+00  0.2132091E+01  0.1601626E+00 -0.2547301E+00
 -0.9293580E+01  0.1390880E+02 -0.1027320E+00  0.3167531E+00  0.2142522E+01  0.1713900E+00 -0.2663794E+00
 -0.1061210E+02  0.1293090E+02 -0.1027320E+00  0.3284855E+00  0.2154011E+01  0.1809003E+00 -0.2741857E+00
 -0.1182850E+02  0.1182850E+02 -0.1027320E+00  0.3385118E+00  0.2164153E+01  0.1892779E+00 -0.2806494E+00
 -0.1293090E+02  0.1061210E+02 -0.1027320E+00  0.3462289E+00  0.2172957E+01  0.1961126E+00 -0.2853319E+00
 -0.1390880E+02  0.9293580E+01 -0.1027320E+00  0.3526592E+00  0.2180363E+01  0.2019017E+00 -0.2891439E+00
 -0.1475280E+02  0.7885520E+01 -0.1027320E+00  0.3590693E+00  0.2185314E+01  0.2070266E+00 -0.2933781E+00
 -0.1545470E+02  0.6401530E+01 -0.1027320E+00  0.3648923E+00  0.2188008E+01  0.2111862E+00 -0.2975681E+00
 -0.1600770E+02  0.4855880E+01 -0.1027320E+00  0.3683127E+00  0.2190114E+01  0.2137981E+00 -0.2999077E+00
 -0.1640660E+02  0.3263470E+01 -0.1027320E+00  0.3690353E+00  0.2192033E+01  0.2147938E+00 -0.3000844E+00
 -0.1664750E+02  0.1639630E+01 -0.1027320E+00  0.3674302E+00  0.2193391E+01  0.2142652E+00 -0.2984885E+00
 -0.1672800E+02 -0.1462410E-05 -0.1027320E+00  0.3653457E+00  0.2191664E+01  0.2125367E+00 -0.2971626E+00
 -0.1664750E+02 -0.1639630E+01 -0.1027320E+00  0.3634624E+00  0.2186072E+01  0.2097845E+00 -0.2968086E+00
 -0.1640660E+02 -0.3263470E+01 -0.1027320E+00  0.3610549E+00  0.2177729E+01  0.2059279E+00 -0.2965710E+00
 -0.1600770E+02 -0.4855890E+01 -0.1027320E+00  0.3563575E+00  0.2169047E+01  0.2006996E+00 -0.2944661E+00
 -0.1545470E+02 -0.6401530E+01 -0.1027320E+00  0.3490243E+00  0.2160709E+01  0.1941582E+00 -0.2900354E+00
 -0.1475280E+02 -0.7885530E+01 -0.1027320E+00  0.3392666E+00  0.2152490E+01  0.1864067E+00 -0.2834684E+00
 -0.1390880E+02 -0.9293580E+01 -0.1027320E+00  0.3288615E+00  0.2141632E+01  0.1776955E+00 -0.2767204E+00
 -0.1293090E+02 -0.1061210E+02 -0.1027320E+00  0.3184810E+00  0.2126907E+01  0.1681218E+00 -0.2704906E+00
 -0.1182850E+02 -0.1182850E+02 -0.1027320E+00  0.3066995E+00  0.2110248E+01  0.1575409E+00 -0.2631453E+00
 -0.1061210E+02 -0.1293090E+02 -0.1027320E+00  0.2920243E+00  0.2092885E+01  0.1456300E+00 -0.2531207E+00
 -0.9293580E+01 -0.1390880E+02 -0.1027320E+00  0.2753802E+00  0.2073682E+01  0.1327211E+00 -0.2412869E+00
 -0.7885520E+01 -0.1475280E+02 -0.1027320E+00  0.2541150E+00  0.2056293E+01  0.1185823E+00 -0.2247503E+00
 -0.6401520E+01 -0.1545470E+02 -0.1027320E+00  0.2230473E+00  0.2049036E+01  0.1026502E+00 -0.1980229E+00
 -0.4855880E+01 -0.1600770E+02 -0.1027320E+00  0.1812897E+00  0.2056808E+01  0.8468097E-01 -0.1602969E+00
 -0.3263470E+01 -0.1640660E+02 -0.1027320E+00  0.1139326E+00  0.2156897E+01  0.6301807E-01 -0.9491769E-01
 -0.1639630E+01 -0.1664750E+02 -0.1027320E+00  0.3763114E-01 -0.3072517E+01  0.3754140E-01  0.2597323E-02
  0.1994790E-06 -0.1672800E+02 -0.1027320E+00  0.1009470E+00 -0.1695444E+01  0.1255028E-01  0.1001638E+00
  0.1639640E+01 -0.1664750E+02 -0.1027320E+00  0.1922975E+00 -0.1510738E+01 -0.1154218E-01  0.1919508E+00
  0.3263470E+01 -0.1640660E+02 -0.1027320E+00  0.2770483E+00 -0.1443214E+01 -0.3525073E-01  0.2747965E+00
  0.4855890E+01 -0.1600770E+02 -0.1027320E+00  0.3325385E+00 -0.1398903E+01 -0.5687989E-01  0.3276378E+00
  0.6401530E+01 -0.1545470E+02 -0.1027320E+00  0.3651157E+00 -0.1360969E+01 -0.7605042E-01  0.3571075E+00
  0.7885520E+01 -0.1475280E+02 -0.1027320E+00  0.3896941E+00 -0.1327999E+01 -0.9368981E-01  0.3782641E+00
  0.9293580E+01 -0.1390880E+02 -0.1027320E+00  0.4053782E+00 -0.1297273E+01 -0.1095030E+00  0.3903084E+00
  0.1061210E+02 -0.1293090E+02 -0.1027320E+00  0.4172100E+00 -0.1269558E+01 -0.1237875E+00  0.3984229E+00
  0.1182850E+02 -0.1182850E+02 -0.1027320E+00  0.4276002E+00 -0.1245161E+01 -0.1367940E+00  0.4051288E+00
  0.1293090E+02 -0.1061210E+02 -0.1027320E+00  0.4360383E+00 -0.1223278E+01 -0.1484998E+00  0.4099722E+00
  0.1390880E+02 -0.9293580E+01 -0.1027320E+00  0.4433213E+00 -0.1204363E+01 -0.1588366E+00  0.4138898E+00
  0.1475280E+02 -0.7885520E+01 -0.1027320E+00  0.4506196E+00 -0.1189090E+01 -0.1678581E+00  0.4181886E+00
  0.1545470E+02 -0.6401530E+01 -0.1027320E+00  0.4574296E+00 -0.1176887E+01 -0.1755620E+00  0.4223976E+00
  0.1600770E+02 -0.4855880E+01 -0.1027320E+00  0.4619918E+00 -0.1166346E+01 -0.1818001E+00  0.4247177E+00
  0.1640660E+02 -0.3263470E+01 -0.1027320E+00  0.4639656E+00 -0.1157188E+01 -0.1864751E+00  0.4248424E+00
  0.1664750E+02 -0.1639620E+01 -0.1027320E+00  0.4636764E+00 -0.1149674E+01 -0.1895440E+00  0.4231653E+00
  0.1672800E+02  0.0000000E+00 -0.2310450E+00  0.4604001E+00 -0.1145135E+01 -0.1901097E+00  0.4193167E+00
  0.1664750E+02  0.1639630E+01 -0.2310450E+00  0.4600967E+00 -0.1144072E+01 -0.1904299E+00  0.4188382E+00
  0.1640660E+02  0.3263470E+01 -0.2310450E+00  0.4592747E+00 -0.1145995E+01 -0.1892854E+00  0.4184546E+00
  0.1600770E+02  0.4855880E+01 -0.2310450E+00  0.4560918E+00 -0.1149677E+01 -0.1864424E+00  0.4162438E+00
  0.1545470E+02  0.6401530E+01 -0.2310450E+00  0.4501047E+00 -0.1154988E+01 -0.1818104E+00  0.4117514E+00
  0.1475280E+02  0.7885530E+01 -0.2310450E+00  0.4415174E+00 -0.1162067E+01 -0.1754785E+00  0.4051481E+00
  0.1390880E+02  0.9293580E+01 -0.2310450E+00  0.4322548E+00 -0.1171849E+01 -0.1679089E+00  0.3983099E+00
  0.1293090E+02  0.1061210E+02 -0.2310450E+00  0.4230612E+00 -0.1184670E+01 -0.1593260E+00  0.3919132E+00
  0.1182850E+02  0.1182850E+02 -0.2310450E+00  0.4123992E+00 -0.1199919E+01 -0.1494670E+00  0.3843601E+00
  0.1061210E+02  0.1293090E+02 -0.2310450E+00  0.3989188E+00 -0.1216896E+01 -0.1382488E+00  0.3741971E+00
  0.9293580E+01  0.1390880E+02 -0.2310450E+00  0.3833605E+00 -0.1236476E+01 -0.1257909E+00  0.3621352E+00
  0.7885520E+01  0.1475280E+02 -0.2310450E+00  0.3628680E+00 -0.1258490E+01 -0.1114926E+00  0.3453152E+00
  0.6401530E+01  0.1545470E+02 -0.2310450E+00  0.3320710E+00 -0.1283321E+01 -0.9415279E-01  0.3184437E+00
  0.4855880E+01  0.1600770E+02 -0.2310450E+00  0.2899798E+00 -0.1312489E+01 -0.7407379E-01  0.2803594E+00
  0.3263470E+01  0.1640660E+02 -0.2310450E+00  0.2197176E+00 -0.1355164E+01 -0.4701199E-01  0.2146292E+00
  0.1639630E+01  0.1664750E+02 -0.2310450E+00  0.1172707E+00 -0.1475192E+01 -0.1119451E-01  0.1167351E+00
 -0.7312040E-06  0.1672800E+02 -0.2310450E+00  0.3304535E-01 -0.2508818E+01  0.2664742E-01  0.1954252E-01
 -0.1639630E+01  0.1664750E+02 -0.2310450E+00  0.9638339E-01  0.2310656E+01  0.6498013E-01 -0.7118525E-01
 -0.3263470E+01  0.1640660E+02 -0.2310450E+00  0.1833139E+00  0.2157359E+01  0.1014645E+00 -0.1526726E+00
 -0.4855880E+01  0.1600770E+02 -0.2310450E+00  0.2406845E+00  0.2128237E+01  0.1273259E+00 -0.2042478E+00
 -0.6401530E+01  0.1545470E+02 -0.2310450E+00  0.2743509E+00  0.2127508E+01  0.1449663E+00 -0.2329232E+00
 -0.7885530E+01  0.1475280E+02 -0.2310450E+00  0.2992729E+00  0.2132055E+01  0.1592886E+00 -0.2533602E+00
 -0.9293580E+01  0.1390880E+02 -0.2310450E+00  0.3150972E+00  0.2142431E+01  0.1704701E+00 -0.2650023E+00
 -0.1061210E+02  0.1293090E+02 -0.2310450E+00  0.3267967E+00  0.2153880E+01  0.1799344E+00 -0.2727997E+00
 -0.1182850E+02  0.1182850E+02 -0.2310450E+00  0.3367364E+00  0.2164039E+01  0.1882534E+00 -0.2791989E+00
 -0.1293090E+02  0.1061210E+02 -0.2310450E+00  0.3444388E+00  0.2172822E+01  0.1950604E+00 -0.2838829E+00
 -0.1390880E+02  0.9293580E+01 -0.2310450E+00  0.3508372E+00  0.2180239E+01  0.2008228E+00 -0.2876751E+00
 -0.1475280E+02  0.7885520E+01 -0.2310450E+00  0.3571467E+00  0.2185239E+01  0.2058963E+00 -0.2918226E+00
 -0.1545470E+02  0.6401530E+01 -0.2310450E+00  0.3628382E+00  0.2188032E+01  0.2100046E+00 -0.2958879E+00
 -0.1600770E+02  0.4855880E+01 -0.2310450E+00  0.3661723E+00  0.2190203E+01  0.2125821E+00 -0.2981459E+00
 -0.1640660E+02  0.3263470E+01 -0.2310450E+00  0.3668733E+00  0.2192146E+01  0.2135690E+00 -0.2983024E+00
 -0.1664750E+02  0.1639630E+01 -0.2310450E+00  0.3653042E+00  0.2193483E+01  0.2130526E+00 -0.2967419E+00
 -0.1672800E+02 -0.1462410E-05 -0.2310450E+00  0.3632479E+00  0.2191753E+01  0.2113426E+00 -0.2954375E+00
 -0.1664750E+02 -0.1639630E+01 -0.2310450E+00  0.3613601E+00  0.2186194E+01  0.2086073E+00 -0.2950663E+00
 -0.1640660E+02 -0.3263470E+01 -0.2310450E+00  0.3589422E+00  0.2177886E+01  0.2047692E+00 -0.2948034E+00
 -0.1600770E+02 -0.4855890E+01 -0.2310450E+00  0.3542883E+00  0.2169192E+01  0.1995767E+00 -0.2927274E+00
 -0.1545470E+02 -0.6401530E+01 -0.2310450E+00  0.3470612E+00  0.2160772E+01  0.1930842E+00 -0.2883920E+00
 -0.1475280E+02 -0.7885530E+01 -0.2310450E+00  0.3374546E+00  0.2152408E+01  0.1853880E+00 -0.2819697E+00
 -0.1390880E+02 -0.9293580E+01 -0.2310450E+00  0.3271686E+00  0.2141459E+01  0.1767332E+00 -0.2753265E+00
 -0.1293090E+02 -0.1061210E+02 -0.2310450E+00  0.3168387E+00  0.2126745E+01  0.1672113E+00 -0.2691228E+00
 -0.1182850E+02 -0.1182850E+02 -0.2310450E+00  0.3050880E+00  0.2110137E+01  0.1566841E+00 -0.2617801E+00
 -0.1061210E+02 -0.1293090E+02 -0.2310450E+00  0.2905342E+00  0.2092732E+01  0.1448485E+00 -0.2518512E+00
 -0.9293580E+01 -0.1390880E+02 -0.2310450E+00  0.2739500E+00  0.2073586E+01  0.1320087E+00 -0.2400465E+00
 -0.7885520E+01 -0.1475280E+02 -0.2310450E+00  0.2527480E+00  0.2056267E+01  0.1179385E+00 -0.2235443E+00
 -0.6401520E+01 -0.1545470E+02 -0.2310450E+00  0.2219356E+00  0.2048862E+01  0.1021041E+00 -0.1970537E+00
 -0.4855880E+01 -0.1600770E+02 -0.2310450E+00  0.1803673E+00  0.2056693E+01  0.8423176E-01 -0.1594909E+00
 -0.3263470E+01 -0.1640660E+02 -0.2310450E+00  0.1133968E+00  0.2156585E+01  0.6269221E-01 -0.9449080E-01
 -0.1639630E+01 -0.1664750E+02 -0.2310450E+00  0.3743022E-01 -0.3070837E+01  0.3733657E-01  0.2646186E-02
  0.1994790E-06 -0.1672800E+02 -0.2310450E+00  0.1004243E+00 -0.1695480E+01  0.1248886E-01  0.9964471E-01
  0.1639640E+01 -0.1664750E+02 -0.2310450E+00  0.1912095E+00 -0.1510808E+01 -0.1146344E-01  0.1908655E+00
  0.3263470E+01 -0.1640660E+02 -0.2310450E+00  0.2756249E+00 -0.1443283E+01 -0.3505061E-01  0.2733872E+00
  0.4855890E+01 -0.1600770E+02 -0.2310450E+00  0.3307782E+00 -0.1398960E+01 -0.5656028E-01  0.3259066E+00
  0.6401530E+01 -0.1545470E+02 -0.2310450E+00  0.3632244E+00 -0.1361038E+01 -0.7563201E-01  0.3552630E+00
  0.7885520E+01 -0.1475280E+02 -0.2310450E+00  0.3875617E+00 -0.1328033E+01 -0.9316425E-01  0.3761974E+00
  0.9293580E+01 -0.1390880E+02 -0.2310450E+00  0.4032142E+00 -0.1297335E+01 -0.1088942E+00  0.3882315E+00
  0.1061210E+02 -0.1293090E+02 -0.2310450E+00  0.4150131E+00 -0.1269641E+01 -0.1231026E+00  0.3963352E+00
  0.1182850E+02 -0.1182850E+02 -0.2310450E+00  0.4253186E+00 -0.1245223E+01 -0.1360391E+00  0.4029756E+00
  0.1293090E+02 -0.1061210E+02 -0.2310450E+00  0.4337371E+00 -0.1223359E+01 -0.1476829E+00  0.4078206E+00
  0.1390880E+02 -0.9293580E+01 -0.2310450E+00  0.4409784E+00 -0.1204458E+01 -0.1579579E+00  0.4117174E+00
  0.1475280E+02 -0.7885520E+01 -0.2310450E+00  0.4481735E+00 -0.1189145E+01 -0.1669237E+00  0.4159278E+00
  0.1545470E+02 -0.6401530E+01 -0.2310450E+00  0.4548490E+00 -0.1176879E+01 -0.1745751E+00  0.4200132E+00
  0.1600770E+02 -0.4855880E+01 -0.2310450E+00  0.4593186E+00 -0.1166301E+01 -0.1807671E+00  0.4222521E+00
  0.1640660E+02 -0.3263470E+01 -0.2310450E+00  0.4612617E+00 -0.1157139E+01 -0.1854090E+00  0.4223575E+00
  0.1664750E+02 -0.1639620E+01 -0.2310450E+00  0.4609987E+00 -0.1149641E+01 -0.1884630E+00  0.4207154E+00
  0.1672800E+02  0.0000000E+00 -0.4105000E+00  0.4566975E+00 -0.1145099E+01 -0.1885960E+00  0.4159377E+00
  0.1664750E+02  0.1639630E+01 -0.4105000E+00  0.4563674E+00 -0.1144036E+01 -0.1889014E+00  0.4154365E+00
  0.1640660E+02  0.3263470E+01 -0.4105000E+00  0.4555114E+00 -0.1145947E+01 -0.1877541E+00  0.4150169E+00
  0.1600770E+02  0.4855880E+01 -0.4105000E+00  0.4523750E+00 -0.1149653E+01 -0.1849330E+00  0.4128474E+00
  0.1545470E+02  0.6401530E+01 -0.4105000E+00  0.4465327E+00 -0.1155003E+01 -0.1803615E+00  0.4084864E+00
  0.1475280E+02  0.7885530E+01 -0.4105000E+00  0.4381644E+00 -0.1162143E+01 -0.1741151E+00  0.4020845E+00
  0.1390880E+02  0.9293580E+01 -0.4105000E+00  0.4290691E+00 -0.1171959E+01 -0.1666279E+00  0.3953927E+00
  0.1293090E+02  0.1061210E+02 -0.4105000E+00  0.4199354E+00 -0.1184766E+01 -0.1581115E+00  0.3890328E+00
  0.1182850E+02  0.1182850E+02 -0.4105000E+00  0.4093026E+00 -0.1199980E+01 -0.1483218E+00  0.3814830E+00
  0.1061210E+02  0.1293090E+02 -0.4105000E+00  0.3959794E+00 -0.1216976E+01 -0.1372004E+00  0.3714508E+00
  0.9293580E+01  0.1390880E+02 -0.4105000E+00  0.3804840E+00 -0.1236552E+01 -0.1248200E+00  0.3594274E+00
  0.7885520E+01  0.1475280E+02 -0.4105000E+00  0.3600672E+00 -0.1258550E+01 -0.1106118E+00  0.3426565E+00
  0.6401530E+01  0.1545470E+02 -0.4105000E+00  0.3296508E+00 -0.1283357E+01 -0.9345532E-01  0.3161262E+00
  0.4855880E+01  0.1600770E+02 -0.4105000E+00  0.2878115E+00 -0.1312541E+01 -0.7350531E-01  0.2782668E+00
  0.3263470E+01  0.1640660E+02 -0.4105000E+00  0.2181147E+00 -0.1355173E+01 -0.4666711E-01  0.2130639E+00
  0.1639630E+01  0.1664750E+02 -0.4105000E+00  0.1162597E+00 -0.1475350E+01 -0.1107978E-01  0.1157306E+00
 -0.7312040E-06  0.1672800E+02 -0.4105000E+00  0.3275684E-01 -0.2510876E+01  0.2645459E-01  0.1931748E-01
 -0.1639630E+01  0.1664750E+02 -0.4105000E+00  0.9563885E-01  0.2310632E+01  0.6447653E-01 -0.7063687E-01
 -0.3263470E+01  0.1640660E+02 -0.4105000E+00  0.1820528E+00  0.2157138E+01  0.1007330E+00 -0.1516446E+00
 -0.4855880E+01  0.1600770E+02 -0.4105000E+00  0.2389418E+00  0.2128134E+01  0.1263832E+00 -0.2027818E+00
 -0.6401530E+01  0.1545470E+02 -0.4105000E+00  0.2724192E+00  0.2127315E+01  0.1439010E+00 -0.2313109E+00
 -0.7885530E+01  0.1475280E+02 -0.4105000E+00  0.2969926E+00  0.2132038E+01  0.1580707E+00 -0.2514324E+00
 -0.9293580E+01  0.1390880E+02 -0.4105000E+00  0.3127751E+00  0.2142332E+01  0.1691878E+00 -0.2630661E+00
 -0.1061210E+02  0.1293090E+02 -0.4105000E+00  0.3244305E+00  0.2153717E+01  0.1785875E+00 -0.2708535E+00
 -0.1182850E+02  0.1182850E+02 -0.4105000E+00  0.3342531E+00  0.2163885E+01  0.1868223E+00 -0.2771689E+00