VARIABLES="w (rad/s)"
"abs(F   1   1)" "angle(F   1   1)"
Zone t="Diffraction force - beta =   0.000 deg",I=     5,F=POINT
  0.5236000E+00  0.3871987E+08 -0.1492749E+01
  0.5890500E+00  0.4827802E+08 -0.1436725E+01
  0.6545000E+00  0.6003996E+08 -0.1343703E+01
  0.7199500E+00  0.7315414E+08 -0.1202430E+01
  0.7854000E+00  0.8495328E+08 -0.1011096E+01
Zone t="Diffraction force - beta =   9.000 deg",I=     5,F=POINT
  0.5236000E+00  0.3821800E+08 -0.1492752E+01
  0.5890500E+00  0.4763781E+08 -0.1436731E+01
  0.6545000E+00  0.5921844E+08 -0.1343715E+01
  0.7199500E+00  0.7211122E+08 -0.1202453E+01
  0.7854000E+00  0.8367778E+08 -0.1011137E+01
Zone t="Diffraction force - beta =  18.000 deg",I=     5,F=POINT
  0.5236000E+00  0.3673037E+08 -0.1492759E+01
  0.5890500E+00  0.4574294E+08 -0.1436746E+01
  0.6545000E+00  0.5679244E+08 -0.1343748E+01
  0.7199500E+00  0.6903992E+08 -0.1202518E+01
  0.7854000E+00  0.7993490E+08 -0.1011256E+01
Zone t="Diffraction force - beta =  27.000 deg",I=     5,F=POINT
  0.5236000E+00  0.3430892E+08 -0.1492769E+01
  0.5890500E+00  0.4266829E+08 -0.1436771E+01
  0.6545000E+00  0.5287246E+08 -0.1343800E+01
  0.7199500E+00  0.6410436E+08 -0.1202622E+01
  0.7854000E+00  0.7396042E+08 -0.1011444E+01
Zone t="Diffraction force - beta =  36.000 deg",I=     5,F=POINT
  0.5236000E+00  0.3103507E+08 -0.1492783E+01
  0.5890500E+00  0.3852936E+08 -0.1436802E+01
  0.6545000E+00  0.4762658E+08 -0.1343867E+01
  0.7199500E+00  0.5755009E+08 -0.1202754E+01
  0.7854000E+00  0.6610266E+08 -0.1011682E+01
Zone t="Diffraction force - beta =  45.000 deg",I=     5,F=POINT
  0.5236000E+00  0.2701275E+08 -0.1492799E+01
  0.5890500E+00  0.3347059E+08 -0.1436836E+01
  0.6545000E+00  0.4126025E+08 -0.1343941E+01
  0.7199500E+00  0.4967007E+08 -0.1202901E+01
  0.7854000E+00  0.5676673E+08 -0.1011948E+01
Zone t="Diffraction force - beta =  54.000 deg",I=     5,F=POINT
  0.5236000E+00  0.2236086E+08 -0.1492814E+01
  0.5890500E+00  0.2765249E+08 -0.1436871E+01
  0.6545000E+00  0.3399435E+08 -0.1344015E+01
  0.7199500E+00  0.4076823E+08 -0.1203049E+01
  0.7854000E+00  0.4635754E+08 -0.1012218E+01
Zone t="Diffraction force - beta =  63.000 deg",I=     5,F=POINT
  0.5236000E+00  0.1720589E+08 -0.1492828E+01
  0.5890500E+00  0.2124001E+08 -0.1436902E+01
  0.6545000E+00  0.2604605E+08 -0.1344082E+01
  0.7199500E+00  0.3112849E+08 -0.1203184E+01
  0.7854000E+00  0.3523283E+08 -0.1012465E+01
Zone t="Diffraction force - beta =  72.000 deg",I=     5,F=POINT
  0.5236000E+00  0.1167644E+08 -0.1492839E+01
  0.5890500E+00  0.1439381E+08 -0.1436927E+01
  0.6545000E+00  0.1761557E+08 -0.1344136E+01
  0.7199500E+00  0.2099499E+08 -0.1203292E+01
  0.7854000E+00  0.2367525E+08 -0.1012662E+01
Zone t="Diffraction force - beta =  81.000 deg",I=     5,F=POINT
  0.5236000E+00  0.5899606E+07 -0.1492846E+01
  0.5890500E+00  0.7265990E+07 -0.1436943E+01
  0.6545000E+00  0.8880928E+07 -0.1344171E+01
  0.7199500E+00  0.1056582E+08 -0.1203361E+01
  0.7854000E+00  0.1188614E+08 -0.1012790E+01
Zone t="Diffraction force - beta =  90.000 deg",I=     5,F=POINT
  0.5236000E+00  0.2882422E+01  0.2327188E+01
  0.5890500E+00  0.4102465E+01  0.2487826E+01
  0.6545000E+00  0.5084848E+01  0.2417777E+01
  0.7199500E+00  0.3073857E+01  0.2693725E+01
  0.7854000E+00  0.3406472E+01  0.1511940E+01
Zone t="Diffraction force - beta =  99.000 deg",I=     5,F=POINT
  0.5236000E+00  0.5899610E+07  0.1648747E+01
  0.5890500E+00  0.7265988E+07  0.1704650E+01
  0.6545000E+00  0.8880929E+07  0.1797422E+01
  0.7199500E+00  0.1056582E+08  0.1938232E+01
  0.7854000E+00  0.1188614E+08  0.2128802E+01
Zone t="Diffraction force - beta = 108.000 deg",I=     5,F=POINT
  0.5236000E+00  0.1167644E+08  0.1648754E+01
  0.5890500E+00  0.1439382E+08  0.1704666E+01
  0.6545000E+00  0.1761558E+08  0.1797457E+01
  0.7199500E+00  0.2099498E+08  0.1938301E+01
  0.7854000E+00  0.2367523E+08  0.2128930E+01
Zone t="Diffraction force - beta = 117.000 deg",I=     5,F=POINT
  0.5236000E+00  0.1720590E+08  0.1648765E+01
  0.5890500E+00  0.2124002E+08  0.1704691E+01
  0.6545000E+00  0.2604607E+08  0.1797510E+01
  0.7199500E+00  0.3112849E+08  0.1938409E+01
  0.7854000E+00  0.3523284E+08  0.2129128E+01
Zone t="Diffraction force - beta = 126.000 deg",I=     5,F=POINT
  0.5236000E+00  0.2236086E+08  0.1648779E+01
  0.5890500E+00  0.2765251E+08  0.1704722E+01
  0.6545000E+00  0.3399438E+08  0.1797578E+01
  0.7199500E+00  0.4076825E+08  0.1938544E+01
  0.7854000E+00  0.4635753E+08  0.2129374E+01
Zone t="Diffraction force - beta = 135.000 deg",I=     5,F=POINT
  0.5236000E+00  0.2701276E+08  0.1648794E+01
  0.5890500E+00  0.3347060E+08  0.1704757E+01
  0.6545000E+00  0.4126023E+08  0.1797652E+01
  0.7199500E+00  0.4967012E+08  0.1938692E+01
  0.7854000E+00  0.5676674E+08  0.2129644E+01
Zone t="Diffraction force - beta = 144.000 deg",I=     5,F=POINT
  0.5236000E+00  0.3103506E+08  0.1648810E+01
  0.5890500E+00  0.3852936E+08  0.1704791E+01
  0.6545000E+00  0.4762662E+08  0.1797726E+01
  0.7199500E+00  0.5755008E+08  0.1938839E+01
  0.7854000E+00  0.6610265E+08  0.2129911E+01
Zone t="Diffraction force - beta = 153.000 deg",I=     5,F=POINT
  0.5236000E+00  0.3430893E+08  0.1648823E+01
  0.5890500E+00  0.4266836E+08  0.1704822E+01
  0.6545000E+00  0.5287249E+08  0.1797792E+01
  0.7199500E+00  0.6410439E+08  0.1938970E+01
  0.7854000E+00  0.7396045E+08  0.2130149E+01
Zone t="Diffraction force - beta = 162.000 deg",I=     5,F=POINT
  0.5236000E+00  0.3673036E+08  0.1648834E+01
  0.5890500E+00  0.4574298E+08  0.1704847E+01
  0.6545000E+00  0.5679248E+08  0.1797845E+01
  0.7199500E+00  0.6903995E+08  0.1939074E+01
  0.7854000E+00  0.7993487E+08  0.2130337E+01
Zone t="Diffraction force - beta = 171.000 deg",I=     5,F=POINT
  0.5236000E+00  0.3821802E+08  0.1648841E+01
  0.5890500E+00  0.4763780E+08  0.1704862E+01
  0.6545000E+00  0.5921845E+08  0.1797878E+01
  0.7199500E+00  0.7211118E+08  0.1939140E+01
  0.7854000E+00  0.8367778E+08  0.2130456E+01
Zone t="Diffraction force - beta = 180.000 deg",I=     5,F=POINT
  0.5236000E+00  0.3871986E+08  0.1648844E+01
  0.5890500E+00  0.4827804E+08  0.1704867E+01
  0.6545000E+00  0.6003992E+08  0.1797890E+01
  0.7199500E+00  0.7315416E+08  0.1939163E+01
  0.7854000E+00  0.8495322E+08  0.2130497E+01
