VARIABLES="w (rad/s)"
"abs(F   1   1)" "angle(F   1   1)"
Zone t="Diffraction force - beta =   0.000 deg",I=     5,F=POINT
  0.5236000E+00  0.4634570E+08 -0.1505611E+01
  0.5890500E+00  0.5704418E+08 -0.1457423E+01
  0.6545000E+00  0.6991388E+08 -0.1376220E+01
  0.7199500E+00  0.8389974E+08 -0.1251420E+01
  0.7854000E+00  0.9598491E+08 -0.1081607E+01
Zone t="Diffraction force - beta =   9.000 deg",I=     5,F=POINT
  0.5236000E+00  0.4574364E+08 -0.1505612E+01
  0.5890500E+00  0.5628535E+08 -0.1457426E+01
  0.6545000E+00  0.6895348E+08 -0.1376221E+01
  0.7199500E+00  0.8269764E+08 -0.1251418E+01
  0.7854000E+00  0.9453504E+08 -0.1081591E+01
Zone t="Diffraction force - beta =  18.000 deg",I=     5,F=POINT
  0.5236000E+00  0.4395927E+08 -0.1505611E+01
  0.5890500E+00  0.5404008E+08 -0.1457423E+01
  0.6545000E+00  0.6611809E+08 -0.1376218E+01
  0.7199500E+00  0.7915882E+08 -0.1251404E+01
  0.7854000E+00  0.9028210E+08 -0.1081549E+01
Zone t="Diffraction force - beta =  27.000 deg",I=     5,F=POINT
  0.5236000E+00  0.4105572E+08 -0.1505612E+01
  0.5890500E+00  0.5039834E+08 -0.1457424E+01
  0.6545000E+00  0.6153900E+08 -0.1376212E+01
  0.7199500E+00  0.7347570E+08 -0.1251385E+01
  0.7854000E+00  0.8349890E+08 -0.1081483E+01
Zone t="Diffraction force - beta =  36.000 deg",I=     5,F=POINT
  0.5236000E+00  0.3713172E+08 -0.1505611E+01
  0.5890500E+00  0.4549886E+08 -0.1457424E+01
  0.6545000E+00  0.5541566E+08 -0.1376208E+01
  0.7199500E+00  0.6593571E+08 -0.1251359E+01
  0.7854000E+00  0.7458743E+08 -0.1081397E+01
Zone t="Diffraction force - beta =  45.000 deg",I=     5,F=POINT
  0.5236000E+00  0.3231311E+08 -0.1505612E+01
  0.5890500E+00  0.3951463E+08 -0.1457424E+01
  0.6545000E+00  0.4799115E+08 -0.1376202E+01
  0.7199500E+00  0.5688083E+08 -0.1251331E+01
  0.7854000E+00  0.6401427E+08 -0.1081300E+01
Zone t="Diffraction force - beta =  54.000 deg",I=     5,F=POINT
  0.5236000E+00  0.2674334E+08 -0.1505613E+01
  0.5890500E+00  0.3263732E+08 -0.1457422E+01
  0.6545000E+00  0.3952585E+08 -0.1376194E+01
  0.7199500E+00  0.4666462E+08 -0.1251301E+01
  0.7854000E+00  0.5224388E+08 -0.1081202E+01
Zone t="Diffraction force - beta =  63.000 deg",I=     5,F=POINT
  0.5236000E+00  0.2057450E+08 -0.1505613E+01
  0.5890500E+00  0.2506288E+08 -0.1457421E+01
  0.6545000E+00  0.3027440E+08 -0.1376187E+01
  0.7199500E+00  0.3561530E+08 -0.1251274E+01
  0.7854000E+00  0.3968421E+08 -0.1081112E+01
Zone t="Diffraction force - beta =  72.000 deg",I=     5,F=POINT
  0.5236000E+00  0.1396057E+08 -0.1505615E+01
  0.5890500E+00  0.1698124E+08 -0.1457421E+01
  0.6545000E+00  0.2047001E+08 -0.1376182E+01
  0.7199500E+00  0.2401288E+08 -0.1251253E+01
  0.7854000E+00  0.2665433E+08 -0.1081039E+01
Zone t="Diffraction force - beta =  81.000 deg",I=     5,F=POINT
  0.5236000E+00  0.7053058E+07 -0.1505614E+01
  0.5890500E+00  0.8571073E+07 -0.1457418E+01
  0.6545000E+00  0.1031828E+08 -0.1376176E+01
  0.7199500E+00  0.1208191E+08 -0.1251237E+01
  0.7854000E+00  0.1337787E+08 -0.1080990E+01
Zone t="Diffraction force - beta =  90.000 deg",I=     5,F=POINT
  0.5236000E+00  0.4748272E+02  0.4302336E-01
  0.5890500E+00  0.2800482E+02  0.3051523E+01
  0.6545000E+00  0.1059221E+02  0.2768425E+01
  0.7199500E+00  0.1771054E+01  0.2511856E+01
  0.7854000E+00  0.5026663E+01  0.7473710E+00
Zone t="Diffraction force - beta =  99.000 deg",I=     5,F=POINT
  0.5236000E+00  0.7053061E+07  0.1635979E+01
  0.5890500E+00  0.8571068E+07  0.1684172E+01
  0.6545000E+00  0.1031827E+08  0.1765411E+01
  0.7199500E+00  0.1208189E+08  0.1890352E+01
  0.7854000E+00  0.1337785E+08  0.2060600E+01
Zone t="Diffraction force - beta = 108.000 deg",I=     5,F=POINT
  0.5236000E+00  0.1396057E+08  0.1635981E+01
  0.5890500E+00  0.1698125E+08  0.1684173E+01
  0.6545000E+00  0.2047002E+08  0.1765410E+01
  0.7199500E+00  0.2401287E+08  0.1890340E+01
  0.7854000E+00  0.2665432E+08  0.2060554E+01
Zone t="Diffraction force - beta = 117.000 deg",I=     5,F=POINT
  0.5236000E+00  0.2057452E+08  0.1635979E+01
  0.5890500E+00  0.2506289E+08  0.1684172E+01
  0.6545000E+00  0.3027441E+08  0.1765404E+01
  0.7199500E+00  0.3561529E+08  0.1890318E+01
  0.7854000E+00  0.3968421E+08  0.2060481E+01
Zone t="Diffraction force - beta = 126.000 deg",I=     5,F=POINT
  0.5236000E+00  0.2674334E+08  0.1635979E+01
  0.5890500E+00  0.3263733E+08  0.1684170E+01
  0.6545000E+00  0.3952588E+08  0.1765400E+01
  0.7199500E+00  0.4666463E+08  0.1890292E+01
  0.7854000E+00  0.5224389E+08  0.2060390E+01
Zone t="Diffraction force - beta = 135.000 deg",I=     5,F=POINT
  0.5236000E+00  0.3231311E+08  0.1635979E+01
  0.5890500E+00  0.3951465E+08  0.1684172E+01
  0.6545000E+00  0.4799115E+08  0.1765393E+01
  0.7199500E+00  0.5688090E+08  0.1890263E+01
  0.7854000E+00  0.6401427E+08  0.2060292E+01
Zone t="Diffraction force - beta = 144.000 deg",I=     5,F=POINT
  0.5236000E+00  0.3713171E+08  0.1635980E+01
  0.5890500E+00  0.4549886E+08  0.1684169E+01
  0.6545000E+00  0.5541571E+08  0.1765386E+01
  0.7199500E+00  0.6593567E+08  0.1890233E+01
  0.7854000E+00  0.7458740E+08  0.2060195E+01
Zone t="Diffraction force - beta = 153.000 deg",I=     5,F=POINT
  0.5236000E+00  0.4105572E+08  0.1635981E+01
  0.5890500E+00  0.5039841E+08  0.1684168E+01
  0.6545000E+00  0.6153903E+08  0.1765379E+01
  0.7199500E+00  0.7347573E+08  0.1890208E+01
  0.7854000E+00  0.8349891E+08  0.2060110E+01
Zone t="Diffraction force - beta = 162.000 deg",I=     5,F=POINT
  0.5236000E+00  0.4395926E+08  0.1635981E+01
  0.5890500E+00  0.5404010E+08  0.1684168E+01
  0.6545000E+00  0.6611813E+08  0.1765375E+01
  0.7199500E+00  0.7915887E+08  0.1890188E+01
  0.7854000E+00  0.9028210E+08  0.2060045E+01
Zone t="Diffraction force - beta = 171.000 deg",I=     5,F=POINT
  0.5236000E+00  0.4574366E+08  0.1635982E+01
  0.5890500E+00  0.5628533E+08  0.1684168E+01
  0.6545000E+00  0.6895347E+08  0.1765371E+01
  0.7199500E+00  0.8269760E+08  0.1890175E+01
  0.7854000E+00  0.9453501E+08  0.2060002E+01
Zone t="Diffraction force - beta = 180.000 deg",I=     5,F=POINT
  0.5236000E+00  0.4634568E+08  0.1635981E+01
  0.5890500E+00  0.5704417E+08  0.1684165E+01
  0.6545000E+00  0.6991379E+08  0.1765370E+01
  0.7199500E+00  0.8389967E+08  0.1890169E+01
  0.7854000E+00  0.9598494E+08  0.2059988E+01
