 VARIABLES="Time (s)"
"AddedMass    1" "IRF    1"
Zone t="DoF    1",I=   100,F=POINT
  0.0000000E+00  0.2075047E+10  0.7219808E+08
  0.1000000E+00  0.2075047E+10  0.7201368E+08
  0.2000000E+00  0.2075047E+10  0.7146147E+08
  0.3000000E+00  0.2075047E+10  0.7054436E+08
  0.4000000E+00  0.2075047E+10  0.6926718E+08
  0.5000000E+00  0.2075047E+10  0.6763667E+08
  0.6000000E+00  0.2075047E+10  0.6566144E+08
  0.7000000E+00  0.2075047E+10  0.6335189E+08
  0.8000000E+00  0.2075047E+10  0.6072021E+08
  0.9000000E+00  0.2075047E+10  0.5778025E+08
  0.1000000E+01  0.2075047E+10  0.5454750E+08
  0.1100000E+01  0.2075047E+10  0.5103900E+08
  0.1200000E+01  0.2075047E+10  0.4727319E+08
  0.1300000E+01  0.2075047E+10  0.4326988E+08
  0.1400000E+01  0.2075047E+10  0.3905012E+08
  0.1500000E+01  0.2075047E+10  0.3463606E+08
  0.1600000E+01  0.2075047E+10  0.3005088E+08
  0.1700000E+01  0.2075047E+10  0.2531860E+08
  0.1800000E+01  0.2075047E+10  0.2046404E+08
  0.1900000E+01  0.2075047E+10  0.1551258E+08
  0.2000000E+01  0.2075047E+10  0.1049011E+08
  0.2100000E+01  0.2075047E+10  0.5422848E+07
  0.2200000E+01  0.2075047E+10  0.3372267E+06
  0.2300000E+01  0.2075047E+10 -0.4740290E+07
  0.2400000E+01  0.2075047E+10 -0.9783332E+07
  0.2500000E+01  0.2075047E+10 -0.1476570E+08
  0.2600000E+01  0.2075047E+10 -0.1966164E+08
  0.2700000E+01  0.2075047E+10 -0.2444583E+08
  0.2800000E+01  0.2075047E+10 -0.2909363E+08
  0.2900000E+01  0.2075047E+10 -0.3358117E+08
  0.3000000E+01  0.2075047E+10 -0.3788545E+08
  0.3100000E+01  0.2075047E+10 -0.4198451E+08
  0.3200000E+01  0.2075047E+10 -0.4585751E+08
  0.3300000E+01  0.2075047E+10 -0.4948485E+08
  0.3400000E+01  0.2075047E+10 -0.5284832E+08
  0.3500000E+01  0.2075047E+10 -0.5593107E+08
  0.3600000E+01  0.2075047E+10 -0.5871786E+08
  0.3700000E+01  0.2075047E+10 -0.6119498E+08
  0.3800000E+01  0.2075047E+10 -0.6335045E+08
  0.3900000E+01  0.2075047E+10 -0.6517401E+08
  0.4000000E+01  0.2075047E+10 -0.6665718E+08
  0.4100000E+01  0.2075047E+10 -0.6779330E+08
  0.4200000E+01  0.2075047E+10 -0.6857758E+08
  0.4300000E+01  0.2075047E+10 -0.6900710E+08
  0.4400000E+01  0.2075047E+10 -0.6908085E+08
  0.4500000E+01  0.2075047E+10 -0.6879966E+08
  0.4600000E+01  0.2075047E+10 -0.6816630E+08
  0.4700000E+01  0.2075047E+10 -0.6718534E+08
  0.4800000E+01  0.2075047E+10 -0.6586324E+08
  0.4900000E+01  0.2075047E+10 -0.6420818E+08
  0.5000000E+01  0.2075047E+10 -0.6223013E+08
  0.5100000E+01  0.2075047E+10 -0.5994070E+08
  0.5200000E+01  0.2075047E+10 -0.5735314E+08
  0.5300000E+01  0.2075047E+10 -0.5448222E+08
  0.5400000E+01  0.2075047E+10 -0.5134418E+08
  0.5500000E+01  0.2075047E+10 -0.4795658E+08
  0.5600000E+01  0.2075047E+10 -0.4433825E+08
  0.5700000E+01  0.2075047E+10 -0.4050916E+08
  0.5800000E+01  0.2075047E+10 -0.3649039E+08
  0.5900000E+01  0.2075047E+10 -0.3230383E+08
  0.6000000E+01  0.2075047E+10 -0.2797225E+08
  0.6100000E+01  0.2075047E+10 -0.2351908E+08
  0.6200000E+01  0.2075047E+10 -0.1896823E+08
  0.6300000E+01  0.2075047E+10 -0.1434415E+08
  0.6400000E+01  0.2075047E+10 -0.9671442E+07
  0.6500000E+01  0.2075047E+10 -0.4974946E+07
  0.6600000E+01  0.2075047E+10 -0.2794532E+06
  0.6700000E+01  0.2075047E+10  0.4390378E+07
  0.6800000E+01  0.2075047E+10  0.9010066E+07
  0.6900000E+01  0.2075047E+10  0.1355556E+08
  0.7000000E+01  0.2075047E+10  0.1800335E+08
  0.7100000E+01  0.2075047E+10  0.2233055E+08
  0.7200000E+01  0.2075047E+10  0.2651505E+08
  0.7300000E+01  0.2075047E+10  0.3053554E+08
  0.7400000E+01  0.2075047E+10  0.3437181E+08
  0.7500000E+01  0.2075047E+10  0.3800467E+08
  0.7600000E+01  0.2075047E+10  0.4141615E+08
  0.7700000E+01  0.2075047E+10  0.4458957E+08
  0.7800000E+01  0.2075047E+10  0.4750958E+08
  0.7900000E+01  0.2075047E+10  0.5016233E+08
  0.8000000E+01  0.2075047E+10  0.5253542E+08
  0.8100000E+01  0.2075047E+10  0.5461810E+08
  0.8200000E+01  0.2075047E+10  0.5640118E+08
  0.8300000E+01  0.2075047E+10  0.5787714E+08
  0.8400001E+01  0.2075047E+10  0.5904020E+08
  0.8500000E+01  0.2075047E+10  0.5988622E+08
  0.8600000E+01  0.2075047E+10  0.6041288E+08
  0.8700000E+01  0.2075047E+10  0.6061954E+08
  0.8800000E+01  0.2075047E+10  0.6050728E+08
  0.8900001E+01  0.2075047E+10  0.6007893E+08
  0.9000000E+01  0.2075047E+10  0.5933899E+08
  0.9100000E+01  0.2075047E+10  0.5829360E+08
  0.9200000E+01  0.2075047E+10  0.5695054E+08
  0.9300000E+01  0.2075047E+10  0.5531910E+08
  0.9400001E+01  0.2075047E+10  0.5341010E+08
  0.9500000E+01  0.2075047E+10  0.5123581E+08
  0.9600000E+01  0.2075047E+10  0.4880978E+08
  0.9700000E+01  0.2075047E+10  0.4614695E+08
  0.9800000E+01  0.2075047E+10  0.4326329E+08
  0.9900001E+01  0.2075047E+10  0.4017596E+08
