VARIABLES="w (rad/s)"
"abs(F   1   1)" "angle(F   1   1)"
Zone t="Diffraction force - beta =   0.000 deg",I=     3,F=POINT
  0.5000000E+00  0.3578026E+08 -0.1506824E+01
  0.1000000E+01  0.8163641E+08 -0.3713060E+00
  0.1500000E+01  0.3209025E+08 -0.1122382E+00
Zone t="Diffraction force - beta =  45.000 deg",I=     3,F=POINT
  0.5000000E+00  0.2500624E+08 -0.1506860E+01
  0.1000000E+01  0.5004260E+08 -0.3736692E+00
  0.1500000E+01  0.1115096E+08  0.3453402E+00
