VARIABLES="w (rad/s)"
"abs(F   1   1)" "angle(F   1   1)"
Zone t="Diffraction force - beta =   0.000 deg",I=     3,F=POINT
  0.5000000E+00  0.4300478E+08 -0.1517576E+01
  0.1000000E+01  0.8907382E+08 -0.5470791E+00
  0.1500000E+01  0.4074431E+08 -0.6718963E+00
Zone t="Diffraction force - beta =  45.000 deg",I=     3,F=POINT
  0.5000000E+00  0.3003904E+08 -0.1517585E+01
  0.1000000E+01  0.5434004E+08 -0.5406642E+00
  0.1500000E+01  0.1050293E+08 -0.4430757E-01
