VARIABLES="w (rad/s)"
"abs(F   1   1)" "angle(F   1   1)"
Zone t="FKforce - beta =   0.000",I=     3,F=POINT
  0.5000000E+00  0.7236819E+07 -0.1570763E+01
  0.1000000E+01  0.1671538E+08 -0.1570794E+01
  0.1500000E+01  0.2176797E+08 -0.1570801E+01
Zone t="FKforce - beta =  45.000",I=     3,F=POINT
  0.5000000E+00  0.5041378E+07 -0.1570809E+01
  0.1000000E+01  0.9701880E+07 -0.1570797E+01
  0.1500000E+01  0.4239996E+07 -0.1570795E+01
