 VARIABLES="X" "Y" "abs(eta) (m)" "angle(phi) (rad)" "PRE1" "PRE2"
ZONE N=  10201 ,E =   10000 ,F=FEPOINT,ET=QUADRILATERAL
 -0.5000000E+02 -0.5000000E+02  0.1408564E+00  0.1713886E+01  0.2008646E-01 -0.1394169E+00
 -0.5000000E+02 -0.4900000E+02  0.1495564E+00  0.1549358E+01 -0.3205945E-02 -0.1495221E+00
 -0.5000000E+02 -0.4800000E+02  0.1586920E+00  0.1386912E+01 -0.2901680E-01 -0.1560166E+00
 -0.5000000E+02 -0.4700000E+02  0.1681929E+00  0.1228036E+01 -0.5652766E-01 -0.1584092E+00
 -0.5000000E+02 -0.4600000E+02  0.1781649E+00  0.1070340E+01 -0.8548816E-01 -0.1563154E+00
 -0.5000000E+02 -0.4500000E+02  0.1885487E+00  0.9159414E+00 -0.1148345E+00 -0.1495448E+00
 -0.5000000E+02 -0.4400000E+02  0.1993584E+00  0.7638875E+00 -0.1439672E+00 -0.1379030E+00
 -0.5000000E+02 -0.4300000E+02  0.2106955E+00  0.6139153E+00 -0.1722222E+00 -0.1213758E+00
 -0.5000000E+02 -0.4200000E+02  0.2224288E+00  0.4667822E+00 -0.1986336E+00 -0.1000963E+00
 -0.5000000E+02 -0.4100000E+02  0.2346139E+00  0.3222105E+00 -0.2225401E+00 -0.7429379E-01
 -0.5000000E+02 -0.4000000E+02  0.2473599E+00  0.1798711E+00 -0.2433692E+00 -0.4425336E-01
 -0.5000000E+02 -0.3900000E+02  0.2605301E+00  0.4013860E-01 -0.2603202E+00 -0.1045451E-01
 -0.5000000E+02 -0.3800000E+02  0.2741562E+00 -0.9665338E-01 -0.2728767E+00  0.2645689E-01
 -0.5000000E+02 -0.3700000E+02  0.2883045E+00 -0.2312225E+00 -0.2806318E+00  0.6607006E-01
 -0.5000000E+02 -0.3600000E+02  0.3029796E+00 -0.3630201E+00 -0.2832340E+00  0.1075878E+00
 -0.5000000E+02 -0.3500000E+02  0.3180777E+00 -0.4920666E+00 -0.2803405E+00  0.1502753E+00
 -0.5000000E+02 -0.3400000E+02  0.3336448E+00 -0.6181763E+00 -0.2718994E+00  0.1933638E+00
 -0.5000000E+02 -0.3300000E+02  0.3497315E+00 -0.7417344E+00 -0.2578563E+00  0.2362673E+00
 -0.5000000E+02 -0.3200000E+02  0.3663017E+00 -0.8623719E+00 -0.2383298E+00  0.2781651E+00
 -0.5000000E+02 -0.3100000E+02  0.3832927E+00 -0.9800687E+00 -0.2134808E+00  0.3183382E+00
 -0.5000000E+02 -0.3000000E+02  0.4006945E+00 -0.1094697E+01 -0.1836447E+00  0.3561330E+00
 -0.5000000E+02 -0.2900000E+02  0.4184901E+00 -0.1206334E+01 -0.1491693E+00  0.3910019E+00
 -0.5000000E+02 -0.2800000E+02  0.4367677E+00 -0.1314914E+01 -0.1105456E+00  0.4225467E+00
 -0.5000000E+02 -0.2700000E+02  0.4553779E+00 -0.1420350E+01 -0.6825168E-01  0.4502341E+00
 -0.5000000E+02 -0.2600000E+02  0.4743252E+00 -0.1522636E+01 -0.2283484E-01  0.4737752E+00
 -0.5000000E+02 -0.2500000E+02  0.4935271E+00 -0.1621446E+01  0.2498625E-01  0.4928942E+00
 -0.5000000E+02 -0.2400000E+02  0.5128587E+00 -0.1717100E+01  0.7476550E-01  0.5073798E+00
 -0.5000000E+02 -0.2300000E+02  0.5324546E+00 -0.1809202E+01  0.1257413E+00  0.5173944E+00
 -0.5000000E+02 -0.2200000E+02  0.5520866E+00 -0.1897945E+01  0.1774098E+00  0.5228053E+00
 -0.5000000E+02 -0.2100000E+02  0.5718555E+00 -0.1983163E+01  0.2291875E+00  0.5239196E+00
 -0.5000000E+02 -0.2000000E+02  0.5915611E+00 -0.2064783E+01  0.2804828E+00  0.5208397E+00
 -0.5000000E+02 -0.1900000E+02  0.6111283E+00 -0.2142853E+01  0.3308417E+00  0.5138302E+00
 -0.5000000E+02 -0.1800000E+02  0.6306094E+00 -0.2217214E+01  0.3798352E+00  0.5033820E+00
 -0.5000000E+02 -0.1700000E+02  0.6497284E+00 -0.2287918E+01  0.4270134E+00  0.4897004E+00
 -0.5000000E+02 -0.1600000E+02  0.6685352E+00 -0.2354822E+01  0.4720764E+00  0.4733743E+00
 -0.5000000E+02 -0.1500000E+02  0.6868901E+00 -0.2417874E+01  0.5147202E+00  0.4548419E+00
 -0.5000000E+02 -0.1400000E+02  0.7046309E+00 -0.2477103E+01  0.5547076E+00  0.4345159E+00
 -0.5000000E+02 -0.1300000E+02  0.7217961E+00 -0.2532419E+01  0.5919601E+00  0.4130047E+00
 -0.5000000E+02 -0.1200000E+02  0.7381487E+00 -0.2583751E+01  0.6262453E+00  0.3907435E+00
 -0.5000000E+02 -0.1100000E+02  0.7536132E+00 -0.2631138E+01  0.6575444E+00  0.3681960E+00
 -0.5000000E+02 -0.1000000E+02  0.7681677E+00 -0.2674497E+01  0.6858814E+00  0.3459023E+00
 -0.5000000E+02 -0.9000000E+01  0.7816328E+00 -0.2713806E+01  0.7111968E+00  0.3242666E+00
 -0.5000000E+02 -0.8000000E+01  0.7939029E+00 -0.2748984E+01  0.7334982E+00  0.3037471E+00
 -0.5000000E+02 -0.7000000E+01  0.8049940E+00 -0.2780104E+01  0.7529684E+00  0.2846999E+00
 -0.5000000E+02 -0.6000000E+01  0.8147865E+00 -0.2807214E+01  0.7696591E+00  0.2673985E+00
 -0.5000000E+02 -0.5000000E+01  0.8231387E+00 -0.2830123E+01  0.7835327E+00  0.2522571E+00
 -0.5000000E+02 -0.4000000E+01  0.8300987E+00 -0.2848913E+01  0.7947981E+00  0.2394991E+00
 -0.5000000E+02 -0.3000000E+01  0.8356401E+00 -0.2863535E+01  0.8035435E+00  0.2293736E+00
 -0.5000000E+02 -0.2000000E+01  0.8395903E+00 -0.2874008E+01  0.8097113E+00  0.2219897E+00
 -0.5000000E+02 -0.1000000E+01  0.8418996E+00 -0.2880228E+01  0.8133073E+00  0.2175458E+00
 -0.5000000E+02  0.0000000E+00  0.8426658E+00 -0.2882274E+01  0.8144912E+00  0.2160783E+00
 -0.5000000E+02  0.1000000E+01  0.8418996E+00 -0.2880228E+01  0.8133073E+00  0.2175459E+00
 -0.5000000E+02  0.2000000E+01  0.8395905E+00 -0.2874009E+01  0.8097116E+00  0.2219896E+00
 -0.5000000E+02  0.3000000E+01  0.8356400E+00 -0.2863535E+01  0.8035434E+00  0.2293736E+00
 -0.5000000E+02  0.4000000E+01  0.8300986E+00 -0.2848913E+01  0.7947980E+00  0.2394991E+00
 -0.5000000E+02  0.5000000E+01  0.8231387E+00 -0.2830123E+01  0.7835328E+00  0.2522570E+00
 -0.5000000E+02  0.6000000E+01  0.8147865E+00 -0.2807214E+01  0.7696591E+00  0.2673985E+00
 -0.5000000E+02  0.7000000E+01  0.8049944E+00 -0.2780104E+01  0.7529687E+00  0.2847000E+00
 -0.5000000E+02  0.8000000E+01  0.7939031E+00 -0.2748984E+01  0.7334984E+00  0.3037470E+00
 -0.5000000E+02  0.9000000E+01  0.7816321E+00 -0.2713805E+01  0.7111961E+00  0.3242666E+00
 -0.5000000E+02  0.1000000E+02  0.7681677E+00 -0.2674497E+01  0.6858813E+00  0.3459023E+00
 -0.5000000E+02  0.1100000E+02  0.7536133E+00 -0.2631138E+01  0.6575445E+00  0.3681960E+00
 -0.5000000E+02  0.1200000E+02  0.7381499E+00 -0.2583753E+01  0.6262468E+00  0.3907433E+00
 -0.5000000E+02  0.1300000E+02  0.7217951E+00 -0.2532418E+01  0.5919588E+00  0.4130048E+00
 -0.5000000E+02  0.1400000E+02  0.7046306E+00 -0.2477103E+01  0.5547073E+00  0.4345160E+00
 -0.5000000E+02  0.1500000E+02  0.6868903E+00 -0.2417875E+01  0.5147207E+00  0.4548416E+00
 -0.5000000E+02  0.1600000E+02  0.6685358E+00 -0.2354822E+01  0.4720770E+00  0.4733745E+00
 -0.5000000E+02  0.1700000E+02  0.6497284E+00 -0.2287918E+01  0.4270133E+00  0.4897006E+00
 -0.5000000E+02  0.1800000E+02  0.6306096E+00 -0.2217214E+01  0.3798354E+00  0.5033821E+00
 -0.5000000E+02  0.1900000E+02  0.6111288E+00 -0.2142853E+01  0.3308422E+00  0.5138306E+00
 -0.5000000E+02  0.2000000E+02  0.5915611E+00 -0.2064783E+01  0.2804827E+00  0.5208398E+00
 -0.5000000E+02  0.2100000E+02  0.5718555E+00 -0.1983163E+01  0.2291878E+00  0.5239195E+00
 -0.5000000E+02  0.2200000E+02  0.5520864E+00 -0.1897945E+01  0.1774097E+00  0.5228052E+00
 -0.5000000E+02  0.2300000E+02  0.5324547E+00 -0.1809202E+01  0.1257413E+00  0.5173946E+00
 -0.5000000E+02  0.2400000E+02  0.5128592E+00 -0.1717100E+01  0.7476574E-01  0.5073801E+00
 -0.5000000E+02  0.2500000E+02  0.4935272E+00 -0.1621446E+01  0.2498616E-01  0.4928943E+00
 -0.5000000E+02  0.2600000E+02  0.4743251E+00 -0.1522636E+01 -0.2283466E-01  0.4737751E+00
 -0.5000000E+02  0.2700000E+02  0.4553782E+00 -0.1420350E+01 -0.6825183E-01  0.4502344E+00
 -0.5000000E+02  0.2800000E+02  0.4367676E+00 -0.1314914E+01 -0.1105454E+00  0.4225466E+00
 -0.5000000E+02  0.2900000E+02  0.4184903E+00 -0.1206334E+01 -0.1491694E+00  0.3910021E+00
 -0.5000000E+02  0.3000000E+02  0.4006948E+00 -0.1094696E+01 -0.1836450E+00  0.3561332E+00
 -0.5000000E+02  0.3100000E+02  0.3832927E+00 -0.9800682E+00 -0.2134810E+00  0.3183381E+00
 -0.5000000E+02  0.3200000E+02  0.3663017E+00 -0.8623717E+00 -0.2383299E+00  0.2781650E+00
 -0.5000000E+02  0.3300000E+02  0.3497316E+00 -0.7417348E+00 -0.2578563E+00  0.2362674E+00
 -0.5000000E+02  0.3400000E+02  0.3336450E+00 -0.6181772E+00 -0.2718994E+00  0.1933642E+00
 -0.5000000E+02  0.3500000E+02  0.3180779E+00 -0.4920667E+00 -0.2803406E+00  0.1502754E+00
 -0.5000000E+02  0.3600000E+02  0.3029798E+00 -0.3630208E+00 -0.2832341E+00  0.1075881E+00
 -0.5000000E+02  0.3700000E+02  0.2883048E+00 -0.2312220E+00 -0.2806322E+00  0.6607001E-01
 -0.5000000E+02  0.3800000E+02  0.2741566E+00 -0.9665287E-01 -0.2728771E+00  0.2645679E-01
 -0.5000000E+02  0.3900000E+02  0.2605302E+00  0.4013843E-01 -0.2603204E+00 -0.1045446E-01
 -0.5000000E+02  0.4000000E+02  0.2473599E+00  0.1798710E+00 -0.2433692E+00 -0.4425335E-01
 -0.5000000E+02  0.4100000E+02  0.2346136E+00  0.3222106E+00 -0.2225399E+00 -0.7429372E-01
 -0.5000000E+02  0.4200000E+02  0.2224293E+00  0.4667817E+00 -0.1986341E+00 -0.1000964E+00
 -0.5000000E+02  0.4300000E+02  0.2106955E+00  0.6139145E+00 -0.1722223E+00 -0.1213757E+00
 -0.5000000E+02  0.4400000E+02  0.1993585E+00  0.7638867E+00 -0.1439673E+00 -0.1379030E+00
 -0.5000000E+02  0.4500000E+02  0.1885491E+00  0.9159400E+00 -0.1148349E+00 -0.1495449E+00
 -0.5000000E+02  0.4600000E+02  0.1781650E+00  0.1070339E+01 -0.8548842E-01 -0.1563154E+00
 -0.5000000E+02  0.4700000E+02  0.1681929E+00  0.1228035E+01 -0.5652777E-01 -0.1584091E+00
 -0.5000000E+02  0.4800000E+02  0.1586919E+00  0.1386912E+01 -0.2901671E-01 -0.1560165E+00
 -0.5000000E+02  0.4900000E+02  0.1495565E+00  0.1549359E+01 -0.3205878E-02 -0.1495222E+00
 -0.5000000E+02  0.5000000E+02  0.1408564E+00  0.1713887E+01  0.2008652E-01 -0.1394169E+00
 -0.4900000E+02 -0.5000000E+02  0.1341924E+00  0.1547934E+01 -0.3067705E-02 -0.1341573E+00
 -0.4900000E+02 -0.4900000E+02  0.1427543E+00  0.1381711E+01 -0.2683217E-01 -0.1402100E+00
 -0.4900000E+02 -0.4800000E+02  0.1517612E+00  0.1218017E+01 -0.5243456E-01 -0.1424151E+00
 -0.4900000E+02 -0.4700000E+02  0.1612191E+00  0.1056268E+01 -0.7933987E-01 -0.1403452E+00
 -0.4900000E+02 -0.4600000E+02  0.1710503E+00  0.8981556E+00 -0.1065735E+00 -0.1337920E+00
 -0.4900000E+02 -0.4500000E+02  0.1813594E+00  0.7412981E+00 -0.1337694E+00 -0.1224622E+00
 -0.4900000E+02 -0.4400000E+02  0.1921189E+00  0.5876648E+00 -0.1598886E+00 -0.1065144E+00
 -0.4900000E+02 -0.4300000E+02  0.2033110E+00  0.4364560E+00 -0.1842517E+00 -0.8594570E-01
 -0.4900000E+02 -0.4200000E+02  0.2150361E+00  0.2873915E+00 -0.2062167E+00 -0.6095235E-01
 -0.4900000E+02 -0.4100000E+02  0.2271985E+00  0.1409681E+00 -0.2249448E+00 -0.3192176E-01
 -0.4900000E+02 -0.4000000E+02  0.2398310E+00 -0.2687638E-02 -0.2398302E+00  0.6445782E-03
 -0.4900000E+02 -0.3900000E+02  0.2530084E+00 -0.1440950E+00 -0.2503863E+00  0.3633120E-01
 -0.4900000E+02 -0.3800000E+02  0.2666836E+00 -0.2830043E+00 -0.2560751E+00  0.7446918E-01
 -0.4900000E+02 -0.3700000E+02  0.2808319E+00 -0.4188711E+00 -0.2565536E+00  0.1142226E+00
 -0.4900000E+02 -0.3600000E+02  0.2954794E+00 -0.5523263E+00 -0.2515435E+00  0.1550289E+00
 -0.4900000E+02 -0.3500000E+02  0.3107348E+00 -0.6830562E+00 -0.2410206E+00  0.1961254E+00
 -0.4900000E+02 -0.3400000E+02  0.3264318E+00 -0.8110800E+00 -0.2248188E+00  0.2366734E+00
 -0.4900000E+02 -0.3300000E+02  0.3426061E+00 -0.9360348E+00 -0.2031605E+00  0.2758709E+00
 -0.4900000E+02 -0.3200000E+02  0.3592587E+00 -0.1058280E+01 -0.1761702E+00  0.3130988E+00
 -0.4900000E+02 -0.3100000E+02  0.3765119E+00 -0.1177577E+01 -0.1442658E+00  0.3477767E+00
 -0.4900000E+02 -0.3000000E+02  0.3941899E+00 -0.1293992E+01 -0.1077253E+00  0.3791845E+00
 -0.4900000E+02 -0.2900000E+02  0.4123009E+00 -0.1407181E+01 -0.6715806E-01  0.4067946E+00
 -0.4900000E+02 -0.2800000E+02  0.4307961E+00 -0.1517240E+01 -0.2306072E-01  0.4301784E+00
 -0.4900000E+02 -0.2700000E+02  0.4497135E+00 -0.1624185E+01  0.2399816E-01  0.4490727E+00
 -0.4900000E+02 -0.2600000E+02  0.4690505E+00 -0.1727781E+01  0.7333165E-01  0.4632827E+00
 -0.4900000E+02 -0.2500000E+02  0.4886501E+00 -0.1828263E+01  0.1244256E+00  0.4725434E+00
 -0.4900000E+02 -0.2400000E+02  0.5085959E+00 -0.1925183E+01  0.1764904E+00  0.4769915E+00
 -0.4900000E+02 -0.2300000E+02  0.5286499E+00 -0.2018802E+01  0.2289946E+00  0.4764790E+00
 -0.4900000E+02 -0.2200000E+02  0.5489062E+00 -0.2108809E+01  0.2812762E+00  0.4713616E+00
 -0.4900000E+02 -0.2100000E+02  0.5691673E+00 -0.2195326E+01  0.3328009E+00  0.4617304E+00
 -0.4900000E+02 -0.2000000E+02  0.5894942E+00 -0.2278219E+01  0.3830987E+00  0.4480388E+00
 -0.4900000E+02 -0.1900000E+02  0.6097153E+00 -0.2357368E+01  0.4316393E+00  0.4306276E+00
 -0.4900000E+02 -0.1800000E+02  0.6297213E+00 -0.2432851E+01  0.4780727E+00  0.4098725E+00
 -0.4900000E+02 -0.1700000E+02  0.6495811E+00 -0.2504519E+01  0.5221592E+00  0.3864005E+00
 -0.4900000E+02 -0.1600000E+02  0.6689889E+00 -0.2572391E+01  0.5635105E+00  0.3605582E+00
 -0.4900000E+02 -0.1500000E+02  0.6879681E+00 -0.2636379E+01  0.6020209E+00  0.3329728E+00
 -0.4900000E+02 -0.1400000E+02  0.7064279E+00 -0.2696445E+01  0.6375843E+00  0.3041819E+00
 -0.4900000E+02 -0.1300000E+02  0.7241282E+00 -0.2752601E+01  0.6700301E+00  0.2746295E+00
 -0.4900000E+02 -0.1200000E+02  0.7411213E+00 -0.2804748E+01  0.6994719E+00  0.2449486E+00
 -0.4900000E+02 -0.1100000E+02  0.7572379E+00 -0.2852878E+01  0.7258964E+00  0.2156009E+00
 -0.4900000E+02 -0.1000000E+02  0.7723061E+00 -0.2896965E+01  0.7493128E+00  0.1870486E+00
 -0.4900000E+02 -0.9000000E+01  0.7863629E+00 -0.2936964E+01  0.7699565E+00  0.1597921E+00
 -0.4900000E+02 -0.8000000E+01  0.7992694E+00 -0.2972888E+01  0.7879222E+00  0.1342022E+00
 -0.4900000E+02 -0.7000000E+01  0.8108281E+00 -0.3004599E+01  0.8032315E+00  0.1107308E+00
 -0.4900000E+02 -0.6000000E+01  0.8211150E+00 -0.3032160E+01  0.8162033E+00  0.8967735E-01
 -0.4900000E+02 -0.5000000E+01  0.8300108E+00 -0.3055513E+01  0.8269377E+00  0.7135859E-01
 -0.4900000E+02 -0.4000000E+01  0.8373129E+00 -0.3074616E+01  0.8354355E+00  0.5603871E-01
 -0.4900000E+02 -0.3000000E+01  0.8430187E+00 -0.3089453E+01  0.8418730E+00  0.4393514E-01
 -0.4900000E+02 -0.2000000E+01  0.8471623E+00 -0.3100082E+01  0.8464325E+00  0.3515618E-01
 -0.4900000E+02 -0.1000000E+01  0.8496855E+00 -0.3106492E+01  0.8491621E+00  0.2981829E-01
 -0.4900000E+02  0.0000000E+00  0.8505328E+00 -0.3108701E+01  0.8500727E+00  0.2797068E-01
 -0.4900000E+02  0.1000000E+01  0.8496853E+00 -0.3106492E+01  0.8491619E+00  0.2981824E-01
 -0.4900000E+02  0.2000000E+01  0.8471621E+00 -0.3100081E+01  0.8464323E+00  0.3515655E-01
 -0.4900000E+02  0.3000000E+01  0.8430184E+00 -0.3089452E+01  0.8418728E+00  0.4393540E-01
 -0.4900000E+02  0.4000000E+01  0.8373130E+00 -0.3074616E+01  0.8354357E+00  0.5603845E-01
 -0.4900000E+02  0.5000000E+01  0.8300107E+00 -0.3055513E+01  0.8269375E+00  0.7135870E-01
 -0.4900000E+02  0.6000000E+01  0.8211151E+00 -0.3032160E+01  0.8162034E+00  0.8967747E-01
 -0.4900000E+02  0.7000000E+01  0.8108280E+00 -0.3004600E+01  0.8032315E+00  0.1107308E+00
 -0.4900000E+02  0.8000000E+01  0.7992692E+00 -0.2972887E+01  0.7879220E+00  0.1342023E+00
 -0.4900000E+02  0.9000000E+01  0.7863629E+00 -0.2936964E+01  0.7699565E+00  0.1597921E+00
 -0.4900000E+02  0.1000000E+02  0.7723064E+00 -0.2896965E+01  0.7493130E+00  0.1870486E+00
 -0.4900000E+02  0.1100000E+02  0.7572382E+00 -0.2852878E+01  0.7258967E+00  0.2156009E+00
 -0.4900000E+02  0.1200000E+02  0.7411214E+00 -0.2804748E+01  0.6994721E+00  0.2449485E+00
 -0.4900000E+02  0.1300000E+02  0.7241279E+00 -0.2752602E+01  0.6700299E+00  0.2746292E+00
 -0.4900000E+02  0.1400000E+02  0.7064280E+00 -0.2696444E+01  0.6375843E+00  0.3041821E+00
 -0.4900000E+02  0.1500000E+02  0.6879687E+00 -0.2636379E+01  0.6020215E+00  0.3329732E+00
 -0.4900000E+02  0.1600000E+02  0.6689885E+00 -0.2572391E+01  0.5635100E+00  0.3605580E+00
 -0.4900000E+02  0.1700000E+02  0.6495815E+00 -0.2504519E+01  0.5221598E+00  0.3864005E+00
 -0.4900000E+02  0.1800000E+02  0.6297213E+00 -0.2432851E+01  0.4780726E+00  0.4098726E+00
 -0.4900000E+02  0.1900000E+02  0.6097146E+00 -0.2357367E+01  0.4316386E+00  0.4306276E+00
 -0.4900000E+02  0.2000000E+02  0.5894948E+00 -0.2278219E+01  0.3830990E+00  0.4480393E+00
 -0.4900000E+02  0.2100000E+02  0.5691676E+00 -0.2195326E+01  0.3328012E+00  0.4617306E+00
 -0.4900000E+02  0.2200000E+02  0.5489060E+00 -0.2108809E+01  0.2812762E+00  0.4713614E+00
 -0.4900000E+02  0.2300000E+02  0.5286497E+00 -0.2018802E+01  0.2289946E+00  0.4764788E+00
 -0.4900000E+02  0.2400000E+02  0.5085959E+00 -0.1925182E+01  0.1764903E+00  0.4769916E+00
 -0.4900000E+02  0.2500000E+02  0.4886500E+00 -0.1828262E+01  0.1244254E+00  0.4725433E+00
 -0.4900000E+02  0.2600000E+02  0.4690506E+00 -0.1727781E+01  0.7333186E-01  0.4632827E+00
 -0.4900000E+02  0.2700000E+02  0.4497134E+00 -0.1624185E+01  0.2399831E-01  0.4490726E+00
 -0.4900000E+02  0.2800000E+02  0.4307964E+00 -0.1517240E+01 -0.2306084E-01  0.4301787E+00
 -0.4900000E+02  0.2900000E+02  0.4123012E+00 -0.1407181E+01 -0.6715826E-01  0.4067948E+00
 -0.4900000E+02  0.3000000E+02  0.3941900E+00 -0.1293992E+01 -0.1077253E+00  0.3791846E+00
 -0.4900000E+02  0.3100000E+02  0.3765117E+00 -0.1177577E+01 -0.1442659E+00  0.3477764E+00
 -0.4900000E+02  0.3200000E+02  0.3592596E+00 -0.1058281E+01 -0.1761705E+00  0.3130997E+00
 -0.4900000E+02  0.3300000E+02  0.3426064E+00 -0.9360348E+00 -0.2031606E+00  0.2758712E+00
 -0.4900000E+02  0.3400000E+02  0.3264320E+00 -0.8110803E+00 -0.2248188E+00  0.2366735E+00
 -0.4900000E+02  0.3500000E+02  0.3107349E+00 -0.6830568E+00 -0.2410206E+00  0.1961256E+00
 -0.4900000E+02  0.3600000E+02  0.2954796E+00 -0.5523258E+00 -0.2515437E+00  0.1550289E+00
 -0.4900000E+02  0.3700000E+02  0.2808321E+00 -0.4188714E+00 -0.2565538E+00  0.1142227E+00
 -0.4900000E+02  0.3800000E+02  0.2666835E+00 -0.2830035E+00 -0.2560751E+00  0.7446895E-01
 -0.4900000E+02  0.3900000E+02  0.2530088E+00 -0.1440948E+00 -0.2503867E+00  0.3633122E-01
 -0.4900000E+02  0.4000000E+02  0.2398313E+00 -0.2687300E-02 -0.2398304E+00  0.6444977E-03
 -0.4900000E+02  0.4100000E+02  0.2271988E+00  0.1409684E+00 -0.2249451E+00 -0.3192187E-01
 -0.4900000E+02  0.4200000E+02  0.2150361E+00  0.2873921E+00 -0.2062167E+00 -0.6095247E-01
 -0.4900000E+02  0.4300000E+02  0.2033106E+00  0.4364570E+00 -0.1842513E+00 -0.8594576E-01
 -0.4900000E+02  0.4400000E+02  0.1921187E+00  0.5876652E+00 -0.1598884E+00 -0.1065143E+00
 -0.4900000E+02  0.4500000E+02  0.1813598E+00  0.7412973E+00 -0.1337697E+00 -0.1224623E+00
 -0.4900000E+02  0.4600000E+02  0.1710503E+00  0.8981563E+00 -0.1065734E+00 -0.1337920E+00
 -0.4900000E+02  0.4700000E+02  0.1612194E+00  0.1056269E+01 -0.7933988E-01 -0.1403455E+00
 -0.4900000E+02  0.4800000E+02  0.1517611E+00  0.1218018E+01 -0.5243437E-01 -0.1424152E+00
 -0.4900000E+02  0.4900000E+02  0.1427545E+00  0.1381712E+01 -0.2683209E-01 -0.1402102E+00
 -0.4900000E+02  0.5000000E+02  0.1341925E+00  0.1547935E+01 -0.3067618E-02 -0.1341575E+00
 -0.4800000E+02 -0.5000000E+02  0.1274147E+00  0.1384112E+01 -0.2364839E-01 -0.1252009E+00
 -0.4800000E+02 -0.4900000E+02  0.1358998E+00  0.1215433E+01 -0.4728380E-01 -0.1274088E+00
 -0.4800000E+02 -0.4800000E+02  0.1447661E+00  0.1049979E+01 -0.7203411E-01 -0.1255719E+00
 -0.4800000E+02 -0.4700000E+02  0.1540789E+00  0.8871487E+00 -0.9732009E-01 -0.1194534E+00
 -0.4800000E+02 -0.4600000E+02  0.1638579E+00  0.7260911E+00 -0.1225289E+00 -0.1087938E+00
 -0.4800000E+02 -0.4500000E+02  0.1740236E+00  0.5686870E+00 -0.1466338E+00 -0.9371626E-01
 -0.4800000E+02 -0.4400000E+02  0.1846729E+00  0.4126856E+00 -0.1691690E+00 -0.7406691E-01
 -0.4800000E+02 -0.4300000E+02  0.1958382E+00  0.2597983E+00 -0.1892662E+00 -0.5030802E-01
 -0.4800000E+02 -0.4200000E+02  0.2074134E+00  0.1093279E+00 -0.2061751E+00 -0.2263094E-01
 -0.4800000E+02 -0.4100000E+02  0.2195310E+00 -0.3879220E-01 -0.2193658E+00  0.8513954E-02
 -0.4800000E+02 -0.4000000E+02  0.2321525E+00 -0.1845419E+00 -0.2282106E+00  0.4259910E-01
 -0.4800000E+02 -0.3900000E+02  0.2452513E+00 -0.3273201E+00 -0.2322302E+00  0.7884989E-01
 -0.4800000E+02 -0.3800000E+02  0.2588813E+00 -0.4677931E+00 -0.2310685E+00  0.1167341E+00
 -0.4800000E+02 -0.3700000E+02  0.2731071E+00 -0.6057848E+00 -0.2245092E+00  0.1555092E+00
 -0.4800000E+02 -0.3600000E+02  0.2877990E+00 -0.7407917E+00 -0.2123768E+00  0.1942276E+00
 -0.4800000E+02 -0.3500000E+02  0.3029982E+00 -0.8731401E+00 -0.1946531E+00  0.2322026E+00
 -0.4800000E+02 -0.3400000E+02  0.3188315E+00 -0.1002794E+01 -0.1715153E+00  0.2687676E+00
 -0.4800000E+02 -0.3300000E+02  0.3351717E+00 -0.1129781E+01 -0.1430706E+00  0.3031021E+00
 -0.4800000E+02 -0.3200000E+02  0.3520201E+00 -0.1253559E+01 -0.1098101E+00  0.3344546E+00
 -0.4800000E+02 -0.3100000E+02  0.3693465E+00 -0.1374474E+01 -0.7204618E-01  0.3622515E+00
 -0.4800000E+02 -0.3000000E+02  0.3872466E+00 -0.1492371E+01 -0.3033874E-01  0.3860563E+00
 -0.4800000E+02 -0.2900000E+02  0.4056368E+00 -0.1607275E+01  0.1479379E-01  0.4053669E+00
 -0.4800000E+02 -0.2800000E+02  0.4245249E+00 -0.1719019E+01  0.6269392E-01  0.4198700E+00
 -0.4800000E+02 -0.2700000E+02  0.4437844E+00 -0.1827429E+01  0.1126434E+00  0.4292505E+00
 -0.4800000E+02 -0.2600000E+02  0.4634498E+00 -0.1932648E+01  0.1640644E+00  0.4334381E+00
 -0.4800000E+02 -0.2500000E+02  0.4834849E+00 -0.2034380E+01  0.2161934E+00  0.4324559E+00
 -0.4800000E+02 -0.2400000E+02  0.5038058E+00 -0.2132840E+01  0.2684866E+00  0.4263040E+00
 -0.4800000E+02 -0.2300000E+02  0.5244543E+00 -0.2227705E+01  0.3202696E+00  0.4153067E+00
 -0.4800000E+02 -0.2200000E+02  0.5451940E+00 -0.2319217E+01  0.3709947E+00  0.3994989E+00
 -0.4800000E+02 -0.2100000E+02  0.5661744E+00 -0.2406998E+01  0.4201594E+00  0.3794990E+00
 -0.4800000E+02 -0.2000000E+02  0.5871317E+00 -0.2491157E+01  0.4672512E+00  0.3555279E+00
 -0.4800000E+02 -0.1900000E+02  0.6080368E+00 -0.2571594E+01  0.5119073E+00  0.3281154E+00
 -0.4800000E+02 -0.1800000E+02  0.6288073E+00 -0.2648190E+01  0.5538073E+00  0.2978189E+00
 -0.4800000E+02 -0.1700000E+02  0.6492662E+00 -0.2721025E+01  0.5926875E+00  0.2650814E+00
 -0.4800000E+02 -0.1600000E+02  0.6695043E+00 -0.2789960E+01  0.6285384E+00  0.2305980E+00
 -0.4800000E+02 -0.1500000E+02  0.6892065E+00 -0.2854949E+01  0.6610858E+00  0.1948621E+00
 -0.4800000E+02 -0.1400000E+02  0.7083651E+00 -0.2915960E+01  0.6904101E+00  0.1584776E+00
 -0.4800000E+02 -0.1300000E+02  0.7269211E+00 -0.2972966E+01  0.7166106E+00  0.1219981E+00
 -0.4800000E+02 -0.1200000E+02  0.7445974E+00 -0.3025918E+01  0.7396215E+00  0.8593877E-01
 -0.4800000E+02 -0.1100000E+02  0.7614371E+00 -0.3074764E+01  0.7597374E+00  0.5084789E-01
 -0.4800000E+02 -0.1000000E+02  0.7773167E+00 -0.3119516E+01  0.7771273E+00  0.1715921E-01
 -0.4800000E+02 -0.9000000E+01  0.7919962E+00  0.3123115E+01  0.7918611E+00 -0.1463378E-01
 -0.4800000E+02 -0.8000000E+01  0.8055262E+00  0.3086759E+01  0.8043155E+00 -0.4414771E-01
 -0.4800000E+02 -0.7000000E+01  0.8177349E+00  0.3054573E+01  0.8146407E+00 -0.7106956E-01
 -0.4800000E+02 -0.6000000E+01  0.8284243E+00  0.3026694E+01  0.8229620E+00 -0.9497567E-01
 -0.4800000E+02 -0.5000000E+01  0.8376194E+00  0.3003101E+01  0.8295994E+00 -0.1156331E+00
 -0.4800000E+02 -0.4000000E+01  0.8452892E+00  0.2983756E+01  0.8347820E+00 -0.1328641E+00
 -0.4800000E+02 -0.3000000E+01  0.8513157E+00  0.2968599E+01  0.8386090E+00 -0.1465384E+00
 -0.4800000E+02 -0.2000000E+01  0.8556219E+00  0.2957828E+01  0.8412156E+00 -0.1563493E+00
 -0.4800000E+02 -0.1000000E+01  0.8582630E+00  0.2951383E+01  0.8427839E+00 -0.1622673E+00
 -0.4800000E+02  0.0000000E+00  0.8591639E+00  0.2949218E+01  0.8433149E+00 -0.1642637E+00
 -0.4800000E+02  0.1000000E+01  0.8582634E+00  0.2951383E+01  0.8427842E+00 -0.1622674E+00
 -0.4800000E+02  0.2000000E+01  0.8556219E+00  0.2957828E+01  0.8412156E+00 -0.1563494E+00
 -0.4800000E+02  0.3000000E+01  0.8513162E+00  0.2968599E+01  0.8386093E+00 -0.1465385E+00
 -0.4800000E+02  0.4000000E+01  0.8452887E+00  0.2983757E+01  0.8347815E+00 -0.1328638E+00
 -0.4800000E+02  0.5000000E+01  0.8376198E+00  0.3003101E+01  0.8295998E+00 -0.1156332E+00
 -0.4800000E+02  0.6000000E+01  0.8284239E+00  0.3026694E+01  0.8229616E+00 -0.9497540E-01
 -0.4800000E+02  0.7000000E+01  0.8177343E+00  0.3054573E+01  0.8146401E+00 -0.7106945E-01
 -0.4800000E+02  0.8000000E+01  0.8055261E+00  0.3086759E+01  0.8043154E+00 -0.4414812E-01
 -0.4800000E+02  0.9000000E+01  0.7919961E+00  0.3123114E+01  0.7918609E+00 -0.1463400E-01
 -0.4800000E+02  0.1000000E+02  0.7773167E+00 -0.3119516E+01  0.7771273E+00  0.1715908E-01
 -0.4800000E+02  0.1100000E+02  0.7614375E+00 -0.3074764E+01  0.7597378E+00  0.5084789E-01
 -0.4800000E+02  0.1200000E+02  0.7445976E+00 -0.3025918E+01  0.7396216E+00  0.8593874E-01
 -0.4800000E+02  0.1300000E+02  0.7269213E+00 -0.2972966E+01  0.7166108E+00  0.1219979E+00
 -0.4800000E+02  0.1400000E+02  0.7083651E+00 -0.2915960E+01  0.6904100E+00  0.1584773E+00
 -0.4800000E+02  0.1500000E+02  0.6892062E+00 -0.2854949E+01  0.6610854E+00  0.1948621E+00
 -0.4800000E+02  0.1600000E+02  0.6695045E+00 -0.2789960E+01  0.6285387E+00  0.2305980E+00
 -0.4800000E+02  0.1700000E+02  0.6492654E+00 -0.2721025E+01  0.5926865E+00  0.2650816E+00
 -0.4800000E+02  0.1800000E+02  0.6288072E+00 -0.2648190E+01  0.5538072E+00  0.2978190E+00
 -0.4800000E+02  0.1900000E+02  0.6080373E+00 -0.2571594E+01  0.5119078E+00  0.3281155E+00
 -0.4800000E+02  0.2000000E+02  0.5871311E+00 -0.2491156E+01  0.4672503E+00  0.3555279E+00
 -0.4800000E+02  0.2100000E+02  0.5661743E+00 -0.2406997E+01  0.4201591E+00  0.3794993E+00
 -0.4800000E+02  0.2200000E+02  0.5451943E+00 -0.2319217E+01  0.3709951E+00  0.3994991E+00
 -0.4800000E+02  0.2300000E+02  0.5244544E+00 -0.2227705E+01  0.3202695E+00  0.4153070E+00
 -0.4800000E+02  0.2400000E+02  0.5038058E+00 -0.2132841E+01  0.2684869E+00  0.4263039E+00
 -0.4800000E+02  0.2500000E+02  0.4834846E+00 -0.2034379E+01  0.2161928E+00  0.4324558E+00
 -0.4800000E+02  0.2600000E+02  0.4634500E+00 -0.1932649E+01  0.1640646E+00  0.4334382E+00
 -0.4800000E+02  0.2700000E+02  0.4437845E+00 -0.1827428E+01  0.1126433E+00  0.4292507E+00
 -0.4800000E+02  0.2800000E+02  0.4245249E+00 -0.1719019E+01  0.6269389E-01  0.4198700E+00
 -0.4800000E+02  0.2900000E+02  0.4056370E+00 -0.1607275E+01  0.1479380E-01  0.4053671E+00
 -0.4800000E+02  0.3000000E+02  0.3872466E+00 -0.1492371E+01 -0.3033874E-01  0.3860563E+00
 -0.4800000E+02  0.3100000E+02  0.3693466E+00 -0.1374474E+01 -0.7204621E-01  0.3622517E+00
 -0.4800000E+02  0.3200000E+02  0.3520203E+00 -0.1253559E+01 -0.1098103E+00  0.3344547E+00
 -0.4800000E+02  0.3300000E+02  0.3351720E+00 -0.1129782E+01 -0.1430706E+00  0.3031024E+00
 -0.4800000E+02  0.3400000E+02  0.3188314E+00 -0.1002793E+01 -0.1715154E+00  0.2687675E+00
 -0.4800000E+02  0.3500000E+02  0.3029987E+00 -0.8731406E+00 -0.1946533E+00  0.2322031E+00
 -0.4800000E+02  0.3600000E+02  0.2877990E+00 -0.7407916E+00 -0.2123768E+00  0.1942276E+00
 -0.4800000E+02  0.3700000E+02  0.2731072E+00 -0.6057854E+00 -0.2245092E+00  0.1555094E+00
 -0.4800000E+02  0.3800000E+02  0.2588812E+00 -0.4677931E+00 -0.2310685E+00  0.1167341E+00
 -0.4800000E+02  0.3900000E+02  0.2452514E+00 -0.3273203E+00 -0.2322303E+00  0.7884997E-01
 -0.4800000E+02  0.4000000E+02  0.2321526E+00 -0.1845416E+00 -0.2282107E+00  0.4259906E-01
 -0.4800000E+02  0.4100000E+02  0.2195312E+00 -0.3879192E-01 -0.2193661E+00  0.8513904E-02
 -0.4800000E+02  0.4200000E+02  0.2074138E+00  0.1093278E+00 -0.2061754E+00 -0.2263095E-01
 -0.4800000E+02  0.4300000E+02  0.1958382E+00  0.2597985E+00 -0.1892662E+00 -0.5030806E-01
 -0.4800000E+02  0.4400000E+02  0.1846729E+00  0.4126863E+00 -0.1691690E+00 -0.7406705E-01
 -0.4800000E+02  0.4500000E+02  0.1740237E+00  0.5686873E+00 -0.1466338E+00 -0.9371634E-01
 -0.4800000E+02  0.4600000E+02  0.1638579E+00  0.7260916E+00 -0.1225289E+00 -0.1087938E+00
 -0.4800000E+02  0.4700000E+02  0.1540791E+00  0.8871496E+00 -0.9732010E-01 -0.1194536E+00
 -0.4800000E+02  0.4800000E+02  0.1447664E+00  0.1049979E+01 -0.7203423E-01 -0.1255722E+00
 -0.4800000E+02  0.4900000E+02  0.1358999E+00  0.1215432E+01 -0.4728385E-01 -0.1274088E+00
 -0.4800000E+02  0.5000000E+02  0.1274147E+00  0.1384114E+01 -0.2364821E-01 -0.1252010E+00
 -0.4700000E+02 -0.5000000E+02  0.1206077E+00  0.1220547E+01 -0.4138437E-01 -0.1132852E+00
 -0.4700000E+02 -0.4900000E+02  0.1289201E+00  0.1051292E+01 -0.6400235E-01 -0.1119111E+00
 -0.4700000E+02 -0.4800000E+02  0.1376891E+00  0.8834192E+00 -0.8736540E-01 -0.1064217E+00
 -0.4700000E+02 -0.4700000E+02  0.1468604E+00  0.7187287E+00 -0.1105335E+00 -0.9669703E-01
 -0.4700000E+02 -0.4600000E+02  0.1564804E+00  0.5567519E+00 -0.1328481E+00 -0.8268915E-01
 -0.4700000E+02 -0.4500000E+02  0.1665839E+00  0.3963463E+00 -0.1536699E+00 -0.6430979E-01
 -0.4700000E+02 -0.4400000E+02  0.1770919E+00  0.2395940E+00 -0.1720332E+00 -0.4202536E-01
 -0.4700000E+02 -0.4300000E+02  0.1880990E+00  0.8446843E-01 -0.1874284E+00 -0.1586954E-01
 -0.4700000E+02 -0.4200000E+02  0.1996758E+00 -0.6780400E-01 -0.1992170E+00  0.1352845E-01
 -0.4700000E+02 -0.4100000E+02  0.2116514E+00 -0.2175830E+00 -0.2066611E+00  0.4568925E-01
 -0.4700000E+02 -0.4000000E+02  0.2241829E+00 -0.3647672E+00 -0.2094332E+00  0.7997318E-01
 -0.4700000E+02 -0.3900000E+02  0.2373048E+00 -0.5098658E+00 -0.2071220E+00  0.1158190E+00
 -0.4700000E+02 -0.3800000E+02  0.2508858E+00 -0.6518105E+00 -0.1994509E+00  0.1521941E+00
 -0.4700000E+02 -0.3700000E+02  0.2650128E+00 -0.7913181E+00 -0.1862797E+00  0.1884984E+00
 -0.4700000E+02 -0.3600000E+02  0.2798033E+00 -0.9283299E+00 -0.1676503E+00  0.2240162E+00
 -0.4700000E+02 -0.3500000E+02  0.2950836E+00 -0.1062481E+01 -0.1436190E+00  0.2577749E+00
 -0.4700000E+02 -0.3400000E+02  0.3108939E+00 -0.1193750E+01 -0.1144636E+00  0.2890555E+00
 -0.4700000E+02 -0.3300000E+02  0.3273056E+00 -0.1322262E+01 -0.8051185E-01  0.3172488E+00
 -0.4700000E+02 -0.3200000E+02  0.3443319E+00 -0.1447991E+01 -0.4217971E-01  0.3417386E+00
 -0.4700000E+02 -0.3100000E+02  0.3619025E+00 -0.1570640E+01 -0.5656372E-04  0.3619025E+00
 -0.4700000E+02 -0.3000000E+02  0.3799563E+00 -0.1690199E+01  0.4526002E-01  0.3772510E+00
 -0.4700000E+02 -0.2900000E+02  0.3985578E+00 -0.1806654E+01  0.9313369E-01  0.3875234E+00
 -0.4700000E+02 -0.2800000E+02  0.4177306E+00 -0.1919939E+01  0.1429023E+00  0.3925275E+00
 -0.4700000E+02 -0.2700000E+02  0.4373736E+00 -0.2030104E+01  0.1939000E+00  0.3920439E+00
 -0.4700000E+02 -0.2600000E+02  0.4574950E+00 -0.2136817E+01  0.2453444E+00  0.3861448E+00