 VARIABLES="X" "Y" "abs(eta) (m)" "angle(phi) (rad)" "PRE1" "PRE2"
ZONE N=  10201 ,E =   10000 ,F=FEPOINT,ET=QUADRILATERAL
 -0.5000000E+02 -0.5000000E+02  0.5323819E-01 -0.2390997E+00 -0.5172364E-01  0.1260830E-01
 -0.5000000E+02 -0.4900000E+02  0.5377662E-01 -0.2582807E+00 -0.5199288E-01  0.1373555E-01
 -0.5000000E+02 -0.4800000E+02  0.5432027E-01 -0.2773189E+00 -0.5224485E-01  0.1487169E-01
 -0.5000000E+02 -0.4700000E+02  0.5487384E-01 -0.2960912E+00 -0.5248597E-01  0.1601130E-01
 -0.5000000E+02 -0.4600000E+02  0.5544042E-01 -0.3144849E+00 -0.5272139E-01  0.1714920E-01
 -0.5000000E+02 -0.4500000E+02  0.5601845E-01 -0.3324846E+00 -0.5295056E-01  0.1828401E-01
 -0.5000000E+02 -0.4400000E+02  0.5660878E-01 -0.3500692E+00 -0.5317540E-01  0.1941471E-01
 -0.5000000E+02 -0.4300000E+02  0.5720876E-01 -0.3672554E+00 -0.5339387E-01  0.2054110E-01
 -0.5000000E+02 -0.4200000E+02  0.5781848E-01 -0.3840288E+00 -0.5360714E-01  0.2166221E-01
 -0.5000000E+02 -0.4100000E+02  0.5843634E-01 -0.4004019E+00 -0.5381428E-01  0.2277781E-01
 -0.5000000E+02 -0.4000000E+02  0.5906168E-01 -0.4163502E+00 -0.5401610E-01  0.2388603E-01
 -0.5000000E+02 -0.3900000E+02  0.5968763E-01 -0.4320496E+00 -0.5420290E-01  0.2499318E-01
 -0.5000000E+02 -0.3800000E+02  0.6031381E-01 -0.4474663E+00 -0.5437569E-01  0.2609674E-01
 -0.5000000E+02 -0.3700000E+02  0.6094031E-01 -0.4625992E+00 -0.5453521E-01  0.2719617E-01
 -0.5000000E+02 -0.3600000E+02  0.6156724E-01 -0.4773974E+00 -0.5468363E-01  0.2828825E-01
 -0.5000000E+02 -0.3500000E+02  0.6218743E-01 -0.4921478E+00 -0.5480702E-01  0.2938480E-01
 -0.5000000E+02 -0.3400000E+02  0.6280179E-01 -0.5067643E+00 -0.5490883E-01  0.3048090E-01
 -0.5000000E+02 -0.3300000E+02  0.6341178E-01 -0.5211790E+00 -0.5499277E-01  0.3157291E-01
 -0.5000000E+02 -0.3200000E+02  0.6401844E-01 -0.5353311E+00 -0.5506225E-01  0.3265746E-01
 -0.5000000E+02 -0.3100000E+02  0.6462160E-01 -0.5491529E+00 -0.5512009E-01  0.3373021E-01
 -0.5000000E+02 -0.3000000E+02  0.6522134E-01 -0.5625762E+00 -0.5516968E-01  0.3478692E-01
 -0.5000000E+02 -0.2900000E+02  0.6581592E-01 -0.5755929E+00 -0.5521098E-01  0.3582573E-01
 -0.5000000E+02 -0.2800000E+02  0.6640517E-01 -0.5882025E+00 -0.5524508E-01  0.3684600E-01
 -0.5000000E+02 -0.2700000E+02  0.6698635E-01 -0.6004055E+00 -0.5527088E-01  0.3784575E-01
 -0.5000000E+02 -0.2600000E+02  0.6755845E-01 -0.6121818E+00 -0.5528958E-01  0.3882276E-01
 -0.5000000E+02 -0.2500000E+02  0.6812023E-01 -0.6235519E+00 -0.5530065E-01  0.3977692E-01
 -0.5000000E+02 -0.2400000E+02  0.6867015E-01 -0.6345112E+00 -0.5530430E-01  0.4070656E-01
 -0.5000000E+02 -0.2300000E+02  0.6920616E-01 -0.6450502E+00 -0.5530054E-01  0.4160941E-01
 -0.5000000E+02 -0.2200000E+02  0.6972692E-01 -0.6551675E+00 -0.5528967E-01  0.4248406E-01
 -0.5000000E+02 -0.2100000E+02  0.7023060E-01 -0.6648664E+00 -0.5527142E-01  0.4332905E-01
 -0.5000000E+02 -0.2000000E+02  0.7071643E-01 -0.6741433E+00 -0.5524664E-01  0.4414319E-01
 -0.5000000E+02 -0.1900000E+02  0.7118180E-01 -0.6829752E+00 -0.5521562E-01  0.4492310E-01
 -0.5000000E+02 -0.1800000E+02  0.7162541E-01 -0.6913998E+00 -0.5517694E-01  0.4566952E-01
 -0.5000000E+02 -0.1700000E+02  0.7204763E-01 -0.6995962E+00 -0.5512380E-01  0.4639211E-01
 -0.5000000E+02 -0.1600000E+02  0.7244474E-01 -0.7074518E+00 -0.5505948E-01  0.4708178E-01
 -0.5000000E+02 -0.1500000E+02  0.7281692E-01 -0.7149507E+00 -0.5498591E-01  0.4773733E-01
 -0.5000000E+02 -0.1400000E+02  0.7316192E-01 -0.7220662E+00 -0.5490376E-01  0.4835540E-01
 -0.5000000E+02 -0.1300000E+02  0.7347872E-01 -0.7287529E+00 -0.5481553E-01  0.4893241E-01
 -0.5000000E+02 -0.1200000E+02  0.7376529E-01 -0.7350000E+00 -0.5472136E-01  0.4946605E-01
 -0.5000000E+02 -0.1100000E+02  0.7402032E-01 -0.7407809E+00 -0.5462268E-01  0.4995368E-01
 -0.5000000E+02 -0.1000000E+02  0.7424228E-01 -0.7460840E+00 -0.5452000E-01  0.5039330E-01
 -0.5000000E+02 -0.9000000E+01  0.7442997E-01 -0.7508559E+00 -0.5441613E-01  0.5078094E-01
 -0.5000000E+02 -0.8000000E+01  0.7458161E-01 -0.7551072E+00 -0.5431018E-01  0.5111575E-01
 -0.5000000E+02 -0.7000000E+01  0.7469635E-01 -0.7588353E+00 -0.5420250E-01  0.5139682E-01
 -0.5000000E+02 -0.6000000E+01  0.7477346E-01 -0.7620400E+00 -0.5409330E-01  0.5162350E-01
 -0.5000000E+02 -0.5000000E+01  0.7481218E-01 -0.7647204E+00 -0.5398267E-01  0.5179511E-01
 -0.5000000E+02 -0.4000000E+01  0.7481153E-01 -0.7668918E+00 -0.5386961E-01  0.5191176E-01
 -0.5000000E+02 -0.3000000E+01  0.7477152E-01 -0.7685473E+00 -0.5375483E-01  0.5197306E-01
 -0.5000000E+02 -0.2000000E+01  0.7469166E-01 -0.7696919E+00 -0.5363796E-01  0.5197898E-01
 -0.5000000E+02 -0.1000000E+01  0.7457159E-01 -0.7703274E+00 -0.5351874E-01  0.5192944E-01
 -0.5000000E+02  0.0000000E+00  0.7441227E-01 -0.7704515E+00 -0.5339797E-01  0.5182512E-01
 -0.5000000E+02  0.1000000E+01  0.7421255E-01 -0.7700745E+00 -0.5327413E-01  0.5166594E-01
 -0.5000000E+02  0.2000000E+01  0.7397438E-01 -0.7691866E+00 -0.5314887E-01  0.5145296E-01
 -0.5000000E+02  0.3000000E+01  0.7369729E-01 -0.7677963E+00 -0.5302100E-01  0.5118657E-01
 -0.5000000E+02  0.4000000E+01  0.7338177E-01 -0.7658984E+00 -0.5289064E-01  0.5086713E-01
 -0.5000000E+02  0.5000000E+01  0.7302965E-01 -0.7635015E+00 -0.5275803E-01  0.5049673E-01
 -0.5000000E+02  0.6000000E+01  0.7264120E-01 -0.7606013E+00 -0.5262286E-01  0.5007573E-01
 -0.5000000E+02  0.7000000E+01  0.7221809E-01 -0.7572056E+00 -0.5248510E-01  0.4960612E-01
 -0.5000000E+02  0.8000000E+01  0.7176154E-01 -0.7532911E+00 -0.5234585E-01  0.4908799E-01
 -0.5000000E+02  0.9000000E+01  0.7127141E-01 -0.7488842E+00 -0.5220268E-01  0.4852314E-01
 -0.5000000E+02  0.1000000E+02  0.7075155E-01 -0.7439659E+00 -0.5205818E-01  0.4791375E-01
 -0.5000000E+02  0.1100000E+02  0.7020197E-01 -0.7385601E+00 -0.5191005E-01  0.4726165E-01
 -0.5000000E+02  0.1200000E+02  0.6962360E-01 -0.7326930E+00 -0.5175650E-01  0.4656941E-01
 -0.5000000E+02  0.1300000E+02  0.6901877E-01 -0.7263736E+00 -0.5159760E-01  0.4583971E-01
 -0.5000000E+02  0.1400000E+02  0.6838857E-01 -0.7196036E+00 -0.5143279E-01  0.4507399E-01
 -0.5000000E+02  0.1500000E+02  0.6773535E-01 -0.7124240E+00 -0.5126073E-01  0.4427658E-01
 -0.5000000E+02  0.1600000E+02  0.6706093E-01 -0.7048075E+00 -0.5108275E-01  0.4344792E-01
 -0.5000000E+02  0.1700000E+02  0.6636633E-01 -0.6968215E+00 -0.5089541E-01  0.4259280E-01
 -0.5000000E+02  0.1800000E+02  0.6565353E-01 -0.6884744E+00 -0.5069872E-01  0.4171361E-01
 -0.5000000E+02  0.1900000E+02  0.6492312E-01 -0.6798183E+00 -0.5048986E-01  0.4081403E-01
 -0.5000000E+02  0.2000000E+02  0.6417864E-01 -0.6708041E+00 -0.5027255E-01  0.3989447E-01
 -0.5000000E+02  0.2100000E+02  0.6342145E-01 -0.6614037E+00 -0.5004782E-01  0.3895505E-01
 -0.5000000E+02  0.2200000E+02  0.6265444E-01 -0.6516282E+00 -0.4981638E-01  0.3799878E-01
 -0.5000000E+02  0.2300000E+02  0.6187874E-01 -0.6414760E+00 -0.4957808E-01  0.3702692E-01
 -0.5000000E+02  0.2400000E+02  0.6109679E-01 -0.6309448E+00 -0.4933386E-01  0.3604148E-01
 -0.5000000E+02  0.2500000E+02  0.6030977E-01 -0.6200356E+00 -0.4908358E-01  0.3504384E-01
 -0.5000000E+02  0.2600000E+02  0.5952016E-01 -0.6087583E+00 -0.4882788E-01  0.3403656E-01
 -0.5000000E+02  0.2700000E+02  0.5872844E-01 -0.5971109E+00 -0.4856627E-01  0.3302040E-01
 -0.5000000E+02  0.2800000E+02  0.5793723E-01 -0.5850875E+00 -0.4830017E-01  0.3199713E-01
 -0.5000000E+02  0.2900000E+02  0.5714712E-01 -0.5727004E+00 -0.4802877E-01  0.3096823E-01
 -0.5000000E+02  0.3000000E+02  0.5636060E-01 -0.5599678E+00 -0.4775277E-01  0.2993643E-01
 -0.5000000E+02  0.3100000E+02  0.5557755E-01 -0.5468478E+00 -0.4747256E-01  0.2890018E-01
 -0.5000000E+02  0.3200000E+02  0.5479931E-01 -0.5334050E+00 -0.4718663E-01  0.2786371E-01
 -0.5000000E+02  0.3300000E+02  0.5402679E-01 -0.5196176E+00 -0.4689575E-01  0.2682691E-01
 -0.5000000E+02  0.3400000E+02  0.5325971E-01 -0.5055301E+00 -0.4659787E-01  0.2579215E-01
 -0.5000000E+02  0.3500000E+02  0.5249789E-01 -0.4911792E+00 -0.4629145E-01  0.2476147E-01
 -0.5000000E+02  0.3600000E+02  0.5174095E-01 -0.4766266E+00 -0.4597430E-01  0.2373794E-01
 -0.5000000E+02  0.3700000E+02  0.5098635E-01 -0.4619111E+00 -0.4564311E-01  0.2272257E-01
 -0.5000000E+02  0.3800000E+02  0.5023935E-01 -0.4469600E+00 -0.4530410E-01  0.2171476E-01
 -0.5000000E+02  0.3900000E+02  0.4950015E-01 -0.4317572E+00 -0.4495761E-01  0.2071420E-01
 -0.5000000E+02  0.4000000E+02  0.4876928E-01 -0.4163019E+00 -0.4460393E-01  0.1972137E-01
 -0.5000000E+02  0.4100000E+02  0.4804843E-01 -0.4005691E+00 -0.4424488E-01  0.1873612E-01
 -0.5000000E+02  0.4200000E+02  0.4733874E-01 -0.3844754E+00 -0.4388279E-01  0.1775547E-01
 -0.5000000E+02  0.4300000E+02  0.4664173E-01 -0.3680151E+00 -0.4351875E-01  0.1678002E-01
 -0.5000000E+02  0.4400000E+02  0.4595693E-01 -0.3511897E+00 -0.4315191E-01  0.1580988E-01
 -0.5000000E+02  0.4500000E+02  0.4528518E-01 -0.3339843E+00 -0.4278289E-01  0.1484492E-01
 -0.5000000E+02  0.4600000E+02  0.4462675E-01 -0.3164507E+00 -0.4241085E-01  0.1388764E-01
 -0.5000000E+02  0.4700000E+02  0.4398208E-01 -0.2985582E+00 -0.4203639E-01  0.1293700E-01
 -0.5000000E+02  0.4800000E+02  0.4335193E-01 -0.2803052E+00 -0.4165995E-01  0.1199327E-01
 -0.5000000E+02  0.4900000E+02  0.4273477E-01 -0.2617683E+00 -0.4127897E-01  0.1105929E-01
 -0.5000000E+02  0.5000000E+02  0.4212923E-01 -0.2429714E+00 -0.4089178E-01  0.1013578E-01
 -0.4900000E+02 -0.5000000E+02  0.5326556E-01 -0.2602831E+00 -0.5147143E-01  0.1370811E-01
 -0.4900000E+02 -0.4900000E+02  0.5381672E-01 -0.2797292E+00 -0.5172488E-01  0.1485855E-01
 -0.4900000E+02 -0.4800000E+02  0.5437873E-01 -0.2989151E+00 -0.5196739E-01  0.1601364E-01
 -0.4900000E+02 -0.4700000E+02  0.5495478E-01 -0.3177224E+00 -0.5220426E-01  0.1716808E-01
 -0.4900000E+02 -0.4600000E+02  0.5554424E-01 -0.3361195E+00 -0.5243608E-01  0.1831995E-01
 -0.4900000E+02 -0.4500000E+02  0.5614594E-01 -0.3541351E+00 -0.5266190E-01  0.1947025E-01
 -0.4900000E+02 -0.4400000E+02  0.5676015E-01 -0.3717037E+00 -0.5288400E-01  0.2061547E-01
 -0.4900000E+02 -0.4300000E+02  0.5738456E-01 -0.3888867E+00 -0.5309976E-01  0.2175784E-01
 -0.4900000E+02 -0.4200000E+02  0.5801927E-01 -0.4056317E+00 -0.5331120E-01  0.2289436E-01
 -0.4900000E+02 -0.4100000E+02  0.5865639E-01 -0.4221260E+00 -0.5350753E-01  0.2403157E-01
 -0.4900000E+02 -0.4000000E+02  0.5929601E-01 -0.4383669E+00 -0.5368934E-01  0.2516886E-01
 -0.4900000E+02 -0.3900000E+02  0.5993719E-01 -0.4543299E+00 -0.5385688E-01  0.2630406E-01
 -0.4900000E+02 -0.3800000E+02  0.6058074E-01 -0.4700104E+00 -0.5401158E-01  0.2743675E-01
 -0.4900000E+02 -0.3700000E+02  0.6122595E-01 -0.4853746E+00 -0.5415437E-01  0.2856434E-01
 -0.4900000E+02 -0.3600000E+02  0.6186685E-01 -0.5006674E+00 -0.5427346E-01  0.2969678E-01
 -0.4900000E+02 -0.3500000E+02  0.6250324E-01 -0.5158547E+00 -0.5436979E-01  0.3083150E-01
 -0.4900000E+02 -0.3400000E+02  0.6313719E-01 -0.5308532E+00 -0.5444796E-01  0.3196442E-01
 -0.4900000E+02 -0.3300000E+02  0.6376929E-01 -0.5455974E+00 -0.5451110E-01  0.3309172E-01
 -0.4900000E+02 -0.3200000E+02  0.6440011E-01 -0.5600064E+00 -0.5456311E-01  0.3420880E-01
 -0.4900000E+02 -0.3100000E+02  0.6502911E-01 -0.5740288E+00 -0.5460624E-01  0.3531208E-01
 -0.4900000E+02 -0.3000000E+02  0.6565577E-01 -0.5876390E+00 -0.5464214E-01  0.3639941E-01
 -0.4900000E+02 -0.2900000E+02  0.6627780E-01 -0.6008452E+00 -0.5466978E-01  0.3746948E-01
 -0.4900000E+02 -0.2800000E+02  0.6689424E-01 -0.6136348E+00 -0.5469008E-01  0.3852057E-01
 -0.4900000E+02 -0.2700000E+02  0.6750352E-01 -0.6260191E+00 -0.5470259E-01  0.3955189E-01
 -0.4900000E+02 -0.2600000E+02  0.6810386E-01 -0.6379923E+00 -0.5470736E-01  0.4056156E-01
 -0.4900000E+02 -0.2500000E+02  0.6869388E-01 -0.6495433E+00 -0.5470506E-01  0.4154762E-01
 -0.4900000E+02 -0.2400000E+02  0.6927181E-01 -0.6606847E+00 -0.5469510E-01  0.4250917E-01
 -0.4900000E+02 -0.2300000E+02  0.6983659E-01 -0.6714088E+00 -0.5467828E-01  0.4344461E-01
 -0.4900000E+02 -0.2200000E+02  0.7038558E-01 -0.6817078E+00 -0.5465425E-01  0.4435137E-01
 -0.4900000E+02 -0.2100000E+02  0.7091813E-01 -0.6915743E+00 -0.5462419E-01  0.4522808E-01
 -0.4900000E+02 -0.2000000E+02  0.7143173E-01 -0.7009847E+00 -0.5458866E-01  0.4607136E-01
 -0.4900000E+02 -0.1900000E+02  0.7192506E-01 -0.7100930E+00 -0.5454086E-01  0.4688825E-01
 -0.4900000E+02 -0.1800000E+02  0.7239748E-01 -0.7189069E+00 -0.5448099E-01  0.4767826E-01
 -0.4900000E+02 -0.1700000E+02  0.7284684E-01 -0.7273912E+00 -0.5441015E-01  0.4843756E-01
 -0.4900000E+02 -0.1600000E+02  0.7327107E-01 -0.7354770E+00 -0.5433128E-01  0.4916056E-01
 -0.4900000E+02 -0.1500000E+02  0.7366859E-01 -0.7431395E+00 -0.5424572E-01  0.4984439E-01
 -0.4900000E+02 -0.1400000E+02  0.7403813E-01 -0.7503698E+00 -0.5415421E-01  0.5048729E-01
 -0.4900000E+02 -0.1300000E+02  0.7437759E-01 -0.7571360E+00 -0.5405809E-01  0.5108570E-01
 -0.4900000E+02 -0.1200000E+02  0.7468542E-01 -0.7634196E+00 -0.5395842E-01  0.5163720E-01
 -0.4900000E+02 -0.1100000E+02  0.7495965E-01 -0.7692010E+00 -0.5385601E-01  0.5213904E-01
 -0.4900000E+02 -0.1000000E+02  0.7519865E-01 -0.7744516E+00 -0.5375235E-01  0.5258824E-01
 -0.4900000E+02 -0.9000000E+01  0.7540114E-01 -0.7791739E+00 -0.5364748E-01  0.5298377E-01
 -0.4900000E+02 -0.8000000E+01  0.7556509E-01 -0.7833731E+00 -0.5354068E-01  0.5332427E-01
 -0.4900000E+02 -0.7000000E+01  0.7569070E-01 -0.7870562E+00 -0.5343259E-01  0.5361008E-01
 -0.4900000E+02 -0.6000000E+01  0.7577586E-01 -0.7902187E+00 -0.5332271E-01  0.5383929E-01
 -0.4900000E+02 -0.5000000E+01  0.7582054E-01 -0.7928679E+00 -0.5321125E-01  0.5401219E-01
 -0.4900000E+02 -0.4000000E+01  0.7582372E-01 -0.7950019E+00 -0.5309810E-01  0.5412790E-01
 -0.4900000E+02 -0.3000000E+01  0.7578514E-01 -0.7966290E+00 -0.5298298E-01  0.5418663E-01
 -0.4900000E+02 -0.2000000E+01  0.7570433E-01 -0.7977448E+00 -0.5286606E-01  0.5418788E-01
 -0.4900000E+02 -0.1000000E+01  0.7558130E-01 -0.7983650E+00 -0.5274658E-01  0.5413254E-01
 -0.4900000E+02  0.0000000E+00  0.7541587E-01 -0.7984710E+00 -0.5262540E-01  0.5401964E-01
 -0.4900000E+02  0.1000000E+01  0.7520884E-01 -0.7980789E+00 -0.5250205E-01  0.5385075E-01
 -0.4900000E+02  0.2000000E+01  0.7496009E-01 -0.7971826E+00 -0.5237649E-01  0.5362573E-01
 -0.4900000E+02  0.3000000E+01  0.7467029E-01 -0.7957836E+00 -0.5224868E-01  0.5334536E-01
 -0.4900000E+02  0.4000000E+01  0.7434113E-01 -0.7938859E+00 -0.5211905E-01  0.5301140E-01
 -0.4900000E+02  0.5000000E+01  0.7397198E-01 -0.7914876E+00 -0.5198661E-01  0.5262363E-01
 -0.4900000E+02  0.6000000E+01  0.7356490E-01 -0.7885903E+00 -0.5185192E-01  0.5218402E-01
 -0.4900000E+02  0.7000000E+01  0.7312097E-01 -0.7851986E+00 -0.5171465E-01  0.5169401E-01
 -0.4900000E+02  0.8000000E+01  0.7264145E-01 -0.7813024E+00 -0.5157521E-01  0.5115445E-01
 -0.4900000E+02  0.9000000E+01  0.7212781E-01 -0.7769054E+00 -0.5143337E-01  0.5056708E-01
 -0.4900000E+02  0.1000000E+02  0.7158180E-01 -0.7720135E+00 -0.5128890E-01  0.4993398E-01
 -0.4900000E+02  0.1100000E+02  0.7100467E-01 -0.7666035E+00 -0.5114260E-01  0.4925543E-01
 -0.4900000E+02  0.1200000E+02  0.7039831E-01 -0.7606990E+00 -0.5099332E-01  0.4853456E-01
 -0.4900000E+02  0.1300000E+02  0.6976602E-01 -0.7543236E+00 -0.5084094E-01  0.4777549E-01
 -0.4900000E+02  0.1400000E+02  0.6910870E-01 -0.7474955E+00 -0.5068389E-01  0.4698038E-01
 -0.4900000E+02  0.1500000E+02  0.6842735E-01 -0.7402390E+00 -0.5052042E-01  0.4615181E-01
 -0.4900000E+02  0.1600000E+02  0.6772404E-01 -0.7325220E+00 -0.5035216E-01  0.4529024E-01
 -0.4900000E+02  0.1700000E+02  0.6700065E-01 -0.7243919E+00 -0.5017696E-01  0.4440000E-01
 -0.4900000E+02  0.1800000E+02  0.6625790E-01 -0.7158526E+00 -0.4999384E-01  0.4348247E-01
 -0.4900000E+02  0.1900000E+02  0.6549737E-01 -0.7069072E+00 -0.4980251E-01  0.4253957E-01
 -0.4900000E+02  0.2000000E+02  0.6472180E-01 -0.6976327E+00 -0.4960053E-01  0.4157763E-01
 -0.4900000E+02  0.2100000E+02  0.6393269E-01 -0.6880352E+00 -0.4938770E-01  0.4059858E-01
 -0.4900000E+02  0.2200000E+02  0.6313311E-01 -0.6780610E+00 -0.4916746E-01  0.3960240E-01
 -0.4900000E+02  0.2300000E+02  0.6232472E-01 -0.6677043E+00 -0.4894019E-01  0.3859053E-01
 -0.4900000E+02  0.2400000E+02  0.6151019E-01 -0.6569722E+00 -0.4870654E-01  0.3756563E-01
 -0.4900000E+02  0.2500000E+02  0.6069149E-01 -0.6458653E+00 -0.4846697E-01  0.3652958E-01
 -0.4900000E+02  0.2600000E+02  0.5987008E-01 -0.6343848E+00 -0.4822154E-01  0.3548393E-01
 -0.4900000E+02  0.2700000E+02  0.5904662E-01 -0.6225268E+00 -0.4796993E-01  0.3442948E-01
 -0.4900000E+02  0.2800000E+02  0.5822451E-01 -0.6103112E+00 -0.4771322E-01  0.3336978E-01
 -0.4900000E+02  0.2900000E+02  0.5740429E-01 -0.5977181E+00 -0.4745165E-01  0.3230470E-01
 -0.4900000E+02  0.3000000E+02  0.5658786E-01 -0.5847670E+00 -0.4718526E-01  0.3123679E-01
 -0.4900000E+02  0.3100000E+02  0.5577529E-01 -0.5714588E+00 -0.4691331E-01  0.3016661E-01
 -0.4900000E+02  0.3200000E+02  0.5496978E-01 -0.5577905E+00 -0.4663783E-01  0.2909621E-01
 -0.4900000E+02  0.3300000E+02  0.5417053E-01 -0.5437795E+00 -0.4635694E-01  0.2802642E-01
 -0.4900000E+02  0.3400000E+02  0.5337895E-01 -0.5294374E+00 -0.4607091E-01  0.2695892E-01
 -0.4900000E+02  0.3500000E+02  0.5259490E-01 -0.5147904E+00 -0.4577839E-01  0.2589522E-01
 -0.4900000E+02  0.3600000E+02  0.5181811E-01 -0.4998983E+00 -0.4547720E-01  0.2483830E-01
 -0.4900000E+02  0.3700000E+02  0.5104721E-01 -0.4848086E+00 -0.4516475E-01  0.2378999E-01
 -0.4900000E+02  0.3800000E+02  0.5028121E-01 -0.4695753E+00 -0.4483880E-01  0.2275263E-01
 -0.4900000E+02  0.3900000E+02  0.4952355E-01 -0.4541027E+00 -0.4450458E-01  0.2172381E-01
 -0.4900000E+02  0.4000000E+02  0.4877546E-01 -0.4384096E+00 -0.4416266E-01  0.2070518E-01
 -0.4900000E+02  0.4100000E+02  0.4803722E-01 -0.4224665E+00 -0.4381381E-01  0.1969580E-01
 -0.4900000E+02  0.4200000E+02  0.4730960E-01 -0.4062735E+00 -0.4345860E-01  0.1869623E-01
 -0.4900000E+02  0.4300000E+02  0.4659348E-01 -0.3898138E+00 -0.4309803E-01  0.1770628E-01
 -0.4900000E+02  0.4400000E+02  0.4589127E-01 -0.3729856E+00 -0.4273595E-01  0.1672266E-01
 -0.4900000E+02  0.4500000E+02  0.4520244E-01 -0.3557695E+00 -0.4237181E-01  0.1574454E-01
 -0.4900000E+02  0.4600000E+02  0.4452765E-01 -0.3381948E+00 -0.4200538E-01  0.1477359E-01
 -0.4900000E+02  0.4700000E+02  0.4386766E-01 -0.3202735E+00 -0.4163695E-01  0.1381069E-01
 -0.4900000E+02  0.4800000E+02  0.4322228E-01 -0.3019817E+00 -0.4126643E-01  0.1285486E-01
 -0.4900000E+02  0.4900000E+02  0.4259171E-01 -0.2833602E+00 -0.4089321E-01  0.1190794E-01
 -0.4900000E+02  0.5000000E+02  0.4197568E-01 -0.2644225E+00 -0.4051676E-01  0.1097042E-01
 -0.4800000E+02 -0.5000000E+02  0.5328599E-01 -0.2813385E+00 -0.5119104E-01  0.1479442E-01
 -0.4800000E+02 -0.4900000E+02  0.5385554E-01 -0.3009308E+00 -0.5143533E-01  0.1596328E-01
 -0.4800000E+02 -0.4800000E+02  0.5443920E-01 -0.3201600E+00 -0.5167288E-01  0.1713302E-01
 -0.4800000E+02 -0.4700000E+02  0.5503818E-01 -0.3389752E+00 -0.5190629E-01  0.1830134E-01
 -0.4800000E+02 -0.4600000E+02  0.5565110E-01 -0.3573685E+00 -0.5213510E-01  0.1946732E-01
 -0.4800000E+02 -0.4500000E+02  0.5627618E-01 -0.3753783E+00 -0.5235762E-01  0.2063223E-01
 -0.4800000E+02 -0.4400000E+02  0.5691538E-01 -0.3929176E+00 -0.5257820E-01  0.2179207E-01
 -0.4800000E+02 -0.4300000E+02  0.5755979E-01 -0.4101888E+00 -0.5278495E-01  0.2295384E-01
 -0.4800000E+02 -0.4200000E+02  0.5820790E-01 -0.4272104E+00 -0.5297647E-01  0.2411748E-01
 -0.4800000E+02 -0.4100000E+02  0.5885983E-01 -0.4439821E+00 -0.5315328E-01  0.2528259E-01
 -0.4800000E+02 -0.4000000E+02  0.5951559E-01 -0.4604848E+00 -0.5331628E-01  0.2644769E-01
 -0.4800000E+02 -0.3900000E+02  0.6017475E-01 -0.4767144E+00 -0.5346571E-01  0.2761193E-01
 -0.4800000E+02 -0.3800000E+02  0.6083713E-01 -0.4926315E+00 -0.5360308E-01  0.2877269E-01
 -0.4800000E+02 -0.3700000E+02  0.6149788E-01 -0.5084603E+00 -0.5371810E-01  0.2993919E-01
 -0.4800000E+02 -0.3600000E+02  0.6215582E-01 -0.5242103E+00 -0.5380950E-01  0.3111082E-01
 -0.4800000E+02 -0.3500000E+02  0.6281288E-01 -0.5397854E+00 -0.5388208E-01  0.3228280E-01
 -0.4800000E+02 -0.3400000E+02  0.6346972E-01 -0.5551116E+00 -0.5393920E-01  0.3345096E-01
 -0.4800000E+02 -0.3300000E+02  0.6412760E-01 -0.5701146E+00 -0.5398512E-01  0.3461150E-01
 -0.4800000E+02 -0.3200000E+02  0.6478579E-01 -0.5847250E+00 -0.5402254E-01  0.3575982E-01
 -0.4800000E+02 -0.3100000E+02  0.6544284E-01 -0.5989206E+00 -0.5405216E-01  0.3689348E-01
 -0.4800000E+02 -0.3000000E+02  0.6609797E-01 -0.6127218E+00 -0.5407381E-01  0.3801269E-01
 -0.4800000E+02 -0.2900000E+02  0.6674904E-01 -0.6261063E+00 -0.5408777E-01  0.3911454E-01
 -0.4800000E+02 -0.2800000E+02  0.6739487E-01 -0.6390835E+00 -0.5409401E-01  0.4019835E-01
 -0.4800000E+02 -0.2700000E+02  0.6803415E-01 -0.6516489E+00 -0.5409292E-01  0.4126259E-01
 -0.4800000E+02 -0.2600000E+02  0.6866505E-01 -0.6638033E+00 -0.5408435E-01  0.4230570E-01
 -0.4800000E+02 -0.2500000E+02  0.6928565E-01 -0.6755351E+00 -0.5406861E-01  0.4332535E-01
 -0.4800000E+02 -0.2400000E+02  0.6989390E-01 -0.6868067E+00 -0.5404718E-01  0.4431770E-01
 -0.4800000E+02 -0.2300000E+02  0.7048763E-01 -0.6976029E+00 -0.5402061E-01  0.4528001E-01
 -0.4800000E+02 -0.2200000E+02  0.7106537E-01 -0.7079189E+00 -0.5398956E-01  0.4621056E-01
 -0.4800000E+02 -0.2100000E+02  0.7162466E-01 -0.7177209E+00 -0.5395532E-01  0.4710536E-01
 -0.4800000E+02 -0.2000000E+02  0.7216471E-01 -0.7272477E+00 -0.5390754E-01  0.4797626E-01
 -0.4800000E+02 -0.1900000E+02  0.7268351E-01 -0.7364283E+00 -0.5384920E-01  0.4881759E-01
 -0.4800000E+02 -0.1800000E+02  0.7317921E-01 -0.7452226E+00 -0.5378211E-01  0.4962541E-01
 -0.4800000E+02 -0.1700000E+02  0.7365000E-01 -0.7536092E+00 -0.5370734E-01  0.5039686E-01
 -0.4800000E+02 -0.1600000E+02  0.7409398E-01 -0.7615425E+00 -0.5362719E-01  0.5112771E-01
 -0.4800000E+02 -0.1500000E+02  0.7450926E-01 -0.7689954E+00 -0.5354307E-01  0.5181476E-01
 -0.4800000E+02 -0.1400000E+02  0.7489327E-01 -0.7759612E+00 -0.5345493E-01  0.5245543E-01
 -0.4800000E+02 -0.1300000E+02  0.7524417E-01 -0.7824056E+00 -0.5336464E-01  0.5304620E-01
 -0.4800000E+02 -0.1200000E+02  0.7556028E-01 -0.7883072E+00 -0.5327353E-01  0.5358439E-01
 -0.4800000E+02 -0.1100000E+02  0.7584034E-01 -0.7936888E+00 -0.5318078E-01  0.5406998E-01
 -0.4800000E+02 -0.1000000E+02  0.7608268E-01 -0.7985591E+00 -0.5308590E-01  0.5450194E-01
 -0.4800000E+02 -0.9000000E+01  0.7628596E-01 -0.8029243E+00 -0.5298868E-01  0.5487939E-01
 -0.4800000E+02 -0.8000000E+01  0.7644877E-01 -0.8068032E+00 -0.5288804E-01  0.5520207E-01
 -0.4800000E+02 -0.7000000E+01  0.7657203E-01 -0.8101968E+00 -0.5278538E-01  0.5547053E-01
 -0.4800000E+02 -0.6000000E+01  0.7665399E-01 -0.8131325E+00 -0.5267863E-01  0.5568479E-01
 -0.4800000E+02 -0.5000000E+01  0.7669453E-01 -0.8156186E+00 -0.5256782E-01  0.5584511E-01
 -0.4800000E+02 -0.4000000E+01  0.7669277E-01 -0.8176498E+00 -0.5245307E-01  0.5595048E-01
 -0.4800000E+02 -0.3000000E+01  0.7664729E-01 -0.8191949E+00 -0.5233551E-01  0.5599823E-01
 -0.4800000E+02 -0.2000000E+01  0.7655840E-01 -0.8202546E+00 -0.5221551E-01  0.5598865E-01
 -0.4800000E+02 -0.1000000E+01  0.7642573E-01 -0.8208343E+00 -0.5209262E-01  0.5592183E-01
 -0.4800000E+02  0.0000000E+00  0.7624932E-01 -0.8209319E+00 -0.5196694E-01  0.5579783E-01
 -0.4800000E+02  0.1000000E+01  0.7602989E-01 -0.8205369E+00 -0.5183935E-01  0.5561678E-01
 -0.4800000E+02  0.2000000E+01  0.7576704E-01 -0.8196580E+00 -0.5170882E-01  0.5537907E-01
 -0.4800000E+02  0.3000000E+01  0.7546195E-01 -0.8182968E+00 -0.5157563E-01  0.5508592E-01
 -0.4800000E+02  0.4000000E+01  0.7511536E-01 -0.8164442E+00 -0.5144025E-01  0.5473772E-01
 -0.4800000E+02  0.5000000E+01  0.7472693E-01 -0.8140868E+00 -0.5130248E-01  0.5433387E-01
 -0.4800000E+02  0.6000000E+01  0.7430167E-01 -0.8112862E+00 -0.5116162E-01  0.5388159E-01
 -0.4800000E+02  0.7000000E+01  0.7384155E-01 -0.8080392E+00 -0.5101840E-01  0.5338256E-01
 -0.4800000E+02  0.8000000E+01  0.7334930E-01 -0.8043883E+00 -0.5087156E-01  0.5284132E-01
 -0.4800000E+02  0.9000000E+01  0.7282412E-01 -0.8002930E+00 -0.5072175E-01  0.5225569E-01
 -0.4800000E+02  0.1000000E+02  0.7226691E-01 -0.7957190E+00 -0.5057031E-01  0.5162509E-01
 -0.4800000E+02  0.1100000E+02  0.7167840E-01 -0.7906709E+00 -0.5041634E-01  0.5095082E-01
 -0.4800000E+02  0.1200000E+02  0.7106048E-01 -0.7851355E+00 -0.5026054E-01  0.5023415E-01
 -0.4800000E+02  0.1300000E+02  0.7041419E-01 -0.7791086E+00 -0.5010252E-01  0.4947620E-01
 -0.4800000E+02  0.1400000E+02  0.6974216E-01 -0.7725771E+00 -0.4994335E-01  0.4867884E-01
 -0.4800000E+02  0.1500000E+02  0.6904475E-01 -0.7655873E+00 -0.4977957E-01  0.4784528E-01
 -0.4800000E+02  0.1600000E+02  0.6832438E-01 -0.7580847E+00 -0.4961403E-01  0.4697519E-01
 -0.4800000E+02  0.1700000E+02  0.6758221E-01 -0.7501392E+00 -0.4944274E-01  0.4607354E-01
 -0.4800000E+02  0.1800000E+02  0.6682033E-01 -0.7417433E+00 -0.4926609E-01  0.4514209E-01
 -0.4800000E+02  0.1900000E+02  0.6604028E-01 -0.7329083E+00 -0.4908323E-01  0.4418319E-01
 -0.4800000E+02  0.2000000E+02  0.6524374E-01 -0.7236624E+00 -0.4889273E-01  0.4320008E-01
 -0.4800000E+02  0.2100000E+02  0.6443208E-01 -0.7140285E+00 -0.4869324E-01  0.4219551E-01
 -0.4800000E+02  0.2200000E+02  0.6360667E-01 -0.7040539E+00 -0.4848255E-01  0.4117342E-01
 -0.4800000E+02  0.2300000E+02  0.6277125E-01 -0.6936688E+00 -0.4826516E-01  0.4013358E-01
 -0.4800000E+02  0.2400000E+02  0.6192875E-01 -0.6828997E+00 -0.4804099E-01  0.3907983E-01
 -0.4800000E+02  0.2500000E+02  0.6107907E-01 -0.6716813E+00 -0.4781125E-01  0.3800968E-01
 -0.4800000E+02  0.2600000E+02  0.6022393E-01 -0.6600103E+00 -0.4757605E-01  0.3692480E-01
 -0.4800000E+02  0.2700000E+02  0.5936839E-01 -0.6479694E+00 -0.4733508E-01  0.3583290E-01
 -0.4800000E+02  0.2800000E+02  0.5851388E-01 -0.6355493E+00 -0.4708880E-01  0.3473499E-01
 -0.4800000E+02  0.2900000E+02  0.5766195E-01 -0.6227691E+00 -0.4683686E-01  0.3363344E-01
 -0.4800000E+02  0.3000000E+02  0.5681402E-01 -0.6096246E+00 -0.4657971E-01  0.3252942E-01
 -0.4800000E+02  0.3100000E+02  0.5597188E-01 -0.5961164E+00 -0.4631798E-01  0.3142446E-01
 -0.4800000E+02  0.3200000E+02  0.5513686E-01 -0.5822421E+00 -0.4605206E-01  0.3031965E-01
 -0.4800000E+02  0.3300000E+02  0.5430960E-01 -0.5680251E+00 -0.4578109E-01  0.2921684E-01
 -0.4800000E+02  0.3400000E+02  0.5349155E-01 -0.5534654E+00 -0.4550570E-01  0.2811722E-01
 -0.4800000E+02  0.3500000E+02  0.5268272E-01 -0.5385701E+00 -0.4522511E-01  0.2702144E-01
 -0.4800000E+02  0.3600000E+02  0.5188364E-01 -0.5233827E+00 -0.4493815E-01  0.2593211E-01
 -0.4800000E+02  0.3700000E+02  0.5109302E-01 -0.5079504E+00 -0.4464218E-01  0.2485100E-01
 -0.4800000E+02  0.3800000E+02  0.5031032E-01 -0.4923472E+00 -0.4433475E-01  0.2378147E-01
 -0.4800000E+02  0.3900000E+02  0.4953418E-01 -0.4765832E+00 -0.4401446E-01  0.2272359E-01
 -0.4800000E+02  0.4000000E+02  0.4876824E-01 -0.4606066E+00 -0.4368576E-01  0.2167707E-01
 -0.4800000E+02  0.4100000E+02  0.4801281E-01 -0.4444063E+00 -0.4334914E-01  0.2064176E-01
 -0.4800000E+02  0.4200000E+02  0.4726876E-01 -0.4279823E+00 -0.4300536E-01  0.1961823E-01
 -0.4800000E+02  0.4300000E+02  0.4653679E-01 -0.4113259E+00 -0.4265523E-01  0.1860657E-01
 -0.4800000E+02  0.4400000E+02  0.4581717E-01 -0.3944153E+00 -0.4229939E-01  0.1760609E-01
 -0.4800000E+02  0.4500000E+02  0.4511118E-01 -0.3772273E+00 -0.4193939E-01  0.1661644E-01
 -0.4800000E+02  0.4600000E+02  0.4441996E-01 -0.3596426E+00 -0.4157809E-01  0.1563315E-01
 -0.4800000E+02  0.4700000E+02  0.4374415E-01 -0.3416957E+00 -0.4121521E-01  0.1465802E-01
 -0.4800000E+02  0.4800000E+02  0.4308384E-01 -0.3233711E+00 -0.4085078E-01  0.1369052E-01
 -0.4800000E+02  0.4900000E+02  0.4243879E-01 -0.3047189E+00 -0.4048369E-01  0.1273270E-01
 -0.4800000E+02  0.5000000E+02  0.4180997E-01 -0.2856896E+00 -0.4011531E-01  0.1178285E-01
 -0.4700000E+02 -0.5000000E+02  0.5330529E-01 -0.3021387E+00 -0.5089068E-01  0.1586167E-01
 -0.4700000E+02 -0.4900000E+02  0.5389583E-01 -0.3217758E+00 -0.5112965E-01  0.1704465E-01
 -0.4700000E+02 -0.4800000E+02  0.5450204E-01 -0.3410034E+00 -0.5136379E-01  0.1822727E-01
 -0.4700000E+02 -0.4700000E+02  0.5512408E-01 -0.3598067E+00 -0.5159421E-01  0.1940882E-01
 -0.4700000E+02 -0.4600000E+02  0.5576097E-01 -0.3781683E+00 -0.5182104E-01  0.2058800E-01
 -0.4700000E+02 -0.4500000E+02  0.5640849E-01 -0.3961883E+00 -0.5203902E-01  0.2176831E-01
 -0.4700000E+02 -0.4400000E+02  0.5706065E-01 -0.4139780E+00 -0.5224062E-01  0.2295290E-01
 -0.4700000E+02 -0.4300000E+02  0.5771880E-01 -0.4315284E+00 -0.5242757E-01  0.2414144E-01
 -0.4700000E+02 -0.4200000E+02  0.5838208E-01 -0.4488231E+00 -0.5259983E-01  0.2533231E-01
 -0.4700000E+02 -0.4100000E+02  0.5905100E-01 -0.4658612E+00 -0.5275823E-01  0.2652526E-01
 -0.4700000E+02 -0.4000000E+02  0.5972443E-01 -0.4826249E+00 -0.5290269E-01  0.2771846E-01
 -0.4700000E+02 -0.3900000E+02  0.6040338E-01 -0.4991043E+00 -0.5303488E-01  0.2891143E-01
 -0.4700000E+02 -0.3800000E+02  0.6108271E-01 -0.5154473E+00 -0.5314637E-01  0.3010914E-01
 -0.4700000E+02 -0.3700000E+02  0.6176103E-01 -0.5317493E+00 -0.5323315E-01  0.3131543E-01
 -0.4700000E+02 -0.3600000E+02  0.6244001E-01 -0.5478897E+00 -0.5330039E-01  0.3252419E-01
 -0.4700000E+02 -0.3500000E+02  0.6312060E-01 -0.5637918E+00 -0.5335173E-01  0.3373133E-01
 -0.4700000E+02 -0.3400000E+02  0.6380419E-01 -0.5793794E+00 -0.5339151E-01  0.3493310E-01
 -0.4700000E+02 -0.3300000E+02  0.6449023E-01 -0.5945739E+00 -0.5342289E-01  0.3612458E-01
 -0.4700000E+02 -0.3200000E+02  0.6517733E-01 -0.6093580E+00 -0.5344643E-01  0.3730366E-01
 -0.4700000E+02 -0.3100000E+02  0.6586419E-01 -0.6237401E+00 -0.5346194E-01  0.3846963E-01
 -0.4700000E+02 -0.3000000E+02  0.6654958E-01 -0.6377224E+00 -0.5346951E-01  0.3962143E-01
 -0.4700000E+02 -0.2900000E+02  0.6723171E-01 -0.6512871E+00 -0.5346967E-01  0.4075657E-01
 -0.4700000E+02 -0.2800000E+02  0.6790876E-01 -0.6644077E+00 -0.5346335E-01  0.4187207E-01
 -0.4700000E+02 -0.2700000E+02  0.6857864E-01 -0.6770399E+00 -0.5345229E-01  0.4296374E-01
 -0.4700000E+02 -0.2600000E+02  0.6923949E-01 -0.6891930E+00 -0.5343623E-01  0.4403040E-01