 VARIABLES="X" "Y" "abs(eta) (m)" "angle(phi) (rad)" "PRE1" "PRE2"
ZONE N=  10201 ,E =   10000 ,F=FEPOINT,ET=QUADRILATERAL
 -0.5000000E+02 -0.5000000E+02  0.6140038E-01 -0.2201920E+00 -0.5991790E-01  0.1341089E-01
 -0.5000000E+02 -0.4900000E+02  0.6218058E-01 -0.2393202E+00 -0.6040839E-01  0.1473942E-01
 -0.5000000E+02 -0.4800000E+02  0.6297228E-01 -0.2582518E+00 -0.6088399E-01  0.1608253E-01
 -0.5000000E+02 -0.4700000E+02  0.6377877E-01 -0.2768949E+00 -0.6134937E-01  0.1743521E-01
 -0.5000000E+02 -0.4600000E+02  0.6460519E-01 -0.2951560E+00 -0.6181145E-01  0.1879295E-01
 -0.5000000E+02 -0.4500000E+02  0.6545000E-01 -0.3130364E+00 -0.6226932E-01  0.2015525E-01
 -0.5000000E+02 -0.4400000E+02  0.6631246E-01 -0.3305213E+00 -0.6272319E-01  0.2152079E-01
 -0.5000000E+02 -0.4300000E+02  0.6719119E-01 -0.3476117E+00 -0.6317241E-01  0.2288890E-01
 -0.5000000E+02 -0.4200000E+02  0.6808601E-01 -0.3643063E+00 -0.6361760E-01  0.2425913E-01
 -0.5000000E+02 -0.4100000E+02  0.6899530E-01 -0.3806035E+00 -0.6405804E-01  0.2563044E-01
 -0.5000000E+02 -0.4000000E+02  0.6991849E-01 -0.3965008E+00 -0.6449407E-01  0.2700203E-01
 -0.5000000E+02 -0.3900000E+02  0.7084932E-01 -0.4121494E+00 -0.6491654E-01  0.2838080E-01
 -0.5000000E+02 -0.3800000E+02  0.7178843E-01 -0.4275440E+00 -0.6532653E-01  0.2976615E-01
 -0.5000000E+02 -0.3700000E+02  0.7273325E-01 -0.4426785E+00 -0.6572231E-01  0.3115611E-01
 -0.5000000E+02 -0.3600000E+02  0.7368501E-01 -0.4575396E+00 -0.6610592E-01  0.3254977E-01
 -0.5000000E+02 -0.3500000E+02  0.7463228E-01 -0.4723146E+00 -0.6646136E-01  0.3395386E-01
 -0.5000000E+02 -0.3400000E+02  0.7557700E-01 -0.4869289E+00 -0.6679299E-01  0.3536353E-01
 -0.5000000E+02 -0.3300000E+02  0.7652172E-01 -0.5013147E+00 -0.6710584E-01  0.3677472E-01
 -0.5000000E+02 -0.3200000E+02  0.7746768E-01 -0.5154306E+00 -0.6740312E-01  0.3818456E-01
 -0.5000000E+02 -0.3100000E+02  0.7841485E-01 -0.5292119E+00 -0.6768811E-01  0.3958799E-01
 -0.5000000E+02 -0.3000000E+02  0.7936367E-01 -0.5426266E+00 -0.6796350E-01  0.4098237E-01
 -0.5000000E+02 -0.2900000E+02  0.8031279E-01 -0.5556591E+00 -0.6822997E-01  0.4236527E-01
 -0.5000000E+02 -0.2800000E+02  0.8126011E-01 -0.5682982E+00 -0.6848750E-01  0.4373408E-01
 -0.5000000E+02 -0.2700000E+02  0.8220439E-01 -0.5805412E+00 -0.6873652E-01  0.4508718E-01
 -0.5000000E+02 -0.2600000E+02  0.8314293E-01 -0.5924021E+00 -0.6897552E-01  0.4642330E-01
 -0.5000000E+02 -0.2500000E+02  0.8407324E-01 -0.6038675E+00 -0.6920452E-01  0.4773933E-01
 -0.5000000E+02 -0.2400000E+02  0.8499369E-01 -0.6149281E+00 -0.6942412E-01  0.4903284E-01
 -0.5000000E+02 -0.2300000E+02  0.8590246E-01 -0.6256000E+00 -0.6963356E-01  0.5030309E-01
 -0.5000000E+02 -0.2200000E+02  0.8679596E-01 -0.6358649E+00 -0.6983242E-01  0.5154583E-01
 -0.5000000E+02 -0.2100000E+02  0.8767328E-01 -0.6457337E+00 -0.7002100E-01  0.5276043E-01
 -0.5000000E+02 -0.2000000E+02  0.8853083E-01 -0.6551862E+00 -0.7019915E-01  0.5394245E-01
 -0.5000000E+02 -0.1900000E+02  0.8936713E-01 -0.6642347E+00 -0.7036667E-01  0.5509097E-01
 -0.5000000E+02 -0.1800000E+02  0.9017930E-01 -0.6728973E+00 -0.7052194E-01  0.5620464E-01
 -0.5000000E+02 -0.1700000E+02  0.9096150E-01 -0.6812950E+00 -0.7065506E-01  0.5728750E-01
 -0.5000000E+02 -0.1600000E+02  0.9171445E-01 -0.6893582E+00 -0.7077186E-01  0.5833425E-01
 -0.5000000E+02 -0.1500000E+02  0.9243502E-01 -0.6970476E+00 -0.7087371E-01  0.5933929E-01
 -0.5000000E+02 -0.1400000E+02  0.9312165E-01 -0.7043325E+00 -0.7096279E-01  0.6029862E-01
 -0.5000000E+02 -0.1300000E+02  0.9377202E-01 -0.7111933E+00 -0.7104014E-01  0.6120859E-01
 -0.5000000E+02 -0.1200000E+02  0.9438436E-01 -0.7176012E+00 -0.7110779E-01  0.6206520E-01
 -0.5000000E+02 -0.1100000E+02  0.9495729E-01 -0.7235499E+00 -0.7116672E-01  0.6286641E-01
 -0.5000000E+02 -0.1000000E+02  0.9548744E-01 -0.7290167E+00 -0.7121737E-01  0.6360768E-01
 -0.5000000E+02 -0.9000000E+01  0.9597400E-01 -0.7339707E+00 -0.7126267E-01  0.6428561E-01
 -0.5000000E+02 -0.8000000E+01  0.9641483E-01 -0.7383938E+00 -0.7130365E-01  0.6489691E-01
 -0.5000000E+02 -0.7000000E+01  0.9680849E-01 -0.7422948E+00 -0.7134004E-01  0.6544068E-01
 -0.5000000E+02 -0.6000000E+01  0.9715292E-01 -0.7456752E+00 -0.7137144E-01  0.6591514E-01
 -0.5000000E+02 -0.5000000E+01  0.9744671E-01 -0.7485261E+00 -0.7139850E-01  0.6631829E-01
 -0.5000000E+02 -0.4000000E+01  0.9768853E-01 -0.7508599E+00 -0.7142033E-01  0.6664972E-01
 -0.5000000E+02 -0.3000000E+01  0.9787764E-01 -0.7526729E+00 -0.7143740E-01  0.6690837E-01
 -0.5000000E+02 -0.2000000E+01  0.9801384E-01 -0.7539694E+00 -0.7144988E-01  0.6709418E-01
 -0.5000000E+02 -0.1000000E+01  0.9809538E-01 -0.7547483E+00 -0.7145699E-01  0.6720567E-01
 -0.5000000E+02  0.0000000E+00  0.9812298E-01 -0.7550033E+00 -0.7145995E-01  0.6724280E-01
 -0.5000000E+02  0.1000000E+01  0.9809528E-01 -0.7547478E+00 -0.7145695E-01  0.6720556E-01
 -0.5000000E+02  0.2000000E+01  0.9801370E-01 -0.7539706E+00 -0.7144970E-01  0.6709416E-01
 -0.5000000E+02  0.3000000E+01  0.9787797E-01 -0.7526744E+00 -0.7143754E-01  0.6690871E-01
 -0.5000000E+02  0.4000000E+01  0.9768838E-01 -0.7508622E+00 -0.7142007E-01  0.6664979E-01
 -0.5000000E+02  0.5000000E+01  0.9744652E-01 -0.7485270E+00 -0.7139830E-01  0.6631823E-01
 -0.5000000E+02  0.6000000E+01  0.9715293E-01 -0.7456748E+00 -0.7137148E-01  0.6591512E-01
 -0.5000000E+02  0.7000000E+01  0.9680846E-01 -0.7422951E+00 -0.7133999E-01  0.6544068E-01
 -0.5000000E+02  0.8000000E+01  0.9641478E-01 -0.7383932E+00 -0.7130365E-01  0.6489684E-01
 -0.5000000E+02  0.9000000E+01  0.9597407E-01 -0.7339708E+00 -0.7126271E-01  0.6428567E-01
 -0.5000000E+02  0.1000000E+02  0.9548757E-01 -0.7290187E+00 -0.7121734E-01  0.6360791E-01
 -0.5000000E+02  0.1100000E+02  0.9495714E-01 -0.7235505E+00 -0.7116656E-01  0.6286635E-01
 -0.5000000E+02  0.1200000E+02  0.9438476E-01 -0.7176010E+00 -0.7110810E-01  0.6206546E-01
 -0.5000000E+02  0.1300000E+02  0.9377194E-01 -0.7111921E+00 -0.7104015E-01  0.6120845E-01
 -0.5000000E+02  0.1400000E+02  0.9312166E-01 -0.7043314E+00 -0.7096287E-01  0.6029855E-01
 -0.5000000E+02  0.1500000E+02  0.9243520E-01 -0.6970455E+00 -0.7087397E-01  0.5933925E-01
 -0.5000000E+02  0.1600000E+02  0.9171432E-01 -0.6893575E+00 -0.7077179E-01  0.5833412E-01
 -0.5000000E+02  0.1700000E+02  0.9096157E-01 -0.6812949E+00 -0.7065511E-01  0.5728754E-01
 -0.5000000E+02  0.1800000E+02  0.9017932E-01 -0.6728959E+00 -0.7052204E-01  0.5620456E-01
 -0.5000000E+02  0.1900000E+02  0.8936708E-01 -0.6642359E+00 -0.7036658E-01  0.5509103E-01
 -0.5000000E+02  0.2000000E+02  0.8853067E-01 -0.6551887E+00 -0.7019889E-01  0.5394253E-01
 -0.5000000E+02  0.2100000E+02  0.8767335E-01 -0.6457351E+00 -0.7002099E-01  0.5276056E-01
 -0.5000000E+02  0.2200000E+02  0.8679600E-01 -0.6358641E+00 -0.6983249E-01  0.5154580E-01
 -0.5000000E+02  0.2300000E+02  0.8590248E-01 -0.6256016E+00 -0.6963349E-01  0.5030321E-01
 -0.5000000E+02  0.2400000E+02  0.8499383E-01 -0.6149306E+00 -0.6942411E-01  0.4903310E-01
 -0.5000000E+02  0.2500000E+02  0.8407325E-01 -0.6038656E+00 -0.6920463E-01  0.4773920E-01
 -0.5000000E+02  0.2600000E+02  0.8314283E-01 -0.5924044E+00 -0.6897534E-01  0.4642341E-01
 -0.5000000E+02  0.2700000E+02  0.8220436E-01 -0.5805418E+00 -0.6873646E-01  0.4508721E-01
 -0.5000000E+02  0.2800000E+02  0.8126010E-01 -0.5683004E+00 -0.6848738E-01  0.4373422E-01
 -0.5000000E+02  0.2900000E+02  0.8031283E-01 -0.5556571E+00 -0.6823009E-01  0.4236516E-01
 -0.5000000E+02  0.3000000E+02  0.7936373E-01 -0.5426274E+00 -0.6796352E-01  0.4098246E-01
 -0.5000000E+02  0.3100000E+02  0.7841502E-01 -0.5292108E+00 -0.6768830E-01  0.3958800E-01
 -0.5000000E+02  0.3200000E+02  0.7746758E-01 -0.5154301E+00 -0.6740306E-01  0.3818448E-01
 -0.5000000E+02  0.3300000E+02  0.7652187E-01 -0.5013157E+00 -0.6710593E-01  0.3677486E-01
 -0.5000000E+02  0.3400000E+02  0.7557690E-01 -0.4869290E+00 -0.6679290E-01  0.3536350E-01
 -0.5000000E+02  0.3500000E+02  0.7463216E-01 -0.4723159E+00 -0.6646121E-01  0.3395389E-01
 -0.5000000E+02  0.3600000E+02  0.7368509E-01 -0.4575417E+00 -0.6610593E-01  0.3254995E-01
 -0.5000000E+02  0.3700000E+02  0.7273329E-01 -0.4426782E+00 -0.6572236E-01  0.3115611E-01
 -0.5000000E+02  0.3800000E+02  0.7178836E-01 -0.4275447E+00 -0.6532644E-01  0.2976616E-01
 -0.5000000E+02  0.3900000E+02  0.7084963E-01 -0.4121462E+00 -0.6491691E-01  0.2838072E-01
 -0.5000000E+02  0.4000000E+02  0.6991836E-01 -0.3964973E+00 -0.6449404E-01  0.2700175E-01
 -0.5000000E+02  0.4100000E+02  0.6899533E-01 -0.3806035E+00 -0.6405807E-01  0.2563044E-01
 -0.5000000E+02  0.4200000E+02  0.6808587E-01 -0.3643037E+00 -0.6361753E-01  0.2425892E-01
 -0.5000000E+02  0.4300000E+02  0.6719111E-01 -0.3476123E+00 -0.6317233E-01  0.2288891E-01
 -0.5000000E+02  0.4400000E+02  0.6631240E-01 -0.3305202E+00 -0.6272315E-01  0.2152070E-01
 -0.5000000E+02  0.4500000E+02  0.6544995E-01 -0.3130373E+00 -0.6226926E-01  0.2015530E-01
 -0.5000000E+02  0.4600000E+02  0.6460516E-01 -0.2951538E+00 -0.6181147E-01  0.1879280E-01
 -0.5000000E+02  0.4700000E+02  0.6377874E-01 -0.2768934E+00 -0.6134937E-01  0.1743511E-01
 -0.5000000E+02  0.4800000E+02  0.6297202E-01 -0.2582413E+00 -0.6088391E-01  0.1608183E-01
 -0.5000000E+02  0.4900000E+02  0.6218065E-01 -0.2393181E+00 -0.6040849E-01  0.1473932E-01
 -0.5000000E+02  0.5000000E+02  0.6140026E-01 -0.2201916E+00 -0.5991779E-01  0.1341084E-01
 -0.4900000E+02 -0.5000000E+02  0.6128729E-01 -0.2412970E+00 -0.5951173E-01  0.1464535E-01
 -0.4900000E+02 -0.4900000E+02  0.6208304E-01 -0.2606316E+00 -0.5998634E-01  0.1599823E-01
 -0.4900000E+02 -0.4800000E+02  0.6289575E-01 -0.2796617E+00 -0.6045217E-01  0.1736115E-01
 -0.4900000E+02 -0.4700000E+02  0.6372850E-01 -0.2983238E+00 -0.6091365E-01  0.1873098E-01
 -0.4900000E+02 -0.4600000E+02  0.6458164E-01 -0.3165910E+00 -0.6137208E-01  0.2010613E-01
 -0.4900000E+02 -0.4500000E+02  0.6545390E-01 -0.3344783E+00 -0.6182656E-01  0.2148697E-01
 -0.4900000E+02 -0.4400000E+02  0.6634475E-01 -0.3519391E+00 -0.6227822E-01  0.2287028E-01
 -0.4900000E+02 -0.4300000E+02  0.6725250E-01 -0.3690082E+00 -0.6272544E-01  0.2425734E-01
 -0.4900000E+02 -0.4200000E+02  0.6817748E-01 -0.3856692E+00 -0.6316963E-01  0.2564695E-01
 -0.4900000E+02 -0.4100000E+02  0.6911340E-01 -0.4020811E+00 -0.6360151E-01  0.2704645E-01
 -0.4900000E+02 -0.4000000E+02  0.7005926E-01 -0.4182532E+00 -0.6402014E-01  0.2845561E-01
 -0.4900000E+02 -0.3900000E+02  0.7101434E-01 -0.4341794E+00 -0.6442532E-01  0.2987333E-01
 -0.4900000E+02 -0.3800000E+02  0.7197825E-01 -0.4498652E+00 -0.6481683E-01  0.3129932E-01
 -0.4900000E+02 -0.3700000E+02  0.7295053E-01 -0.4652783E+00 -0.6519566E-01  0.3273083E-01
 -0.4900000E+02 -0.3600000E+02  0.7392190E-01 -0.4806012E+00 -0.6554782E-01  0.3417501E-01
 -0.4900000E+02 -0.3500000E+02  0.7489239E-01 -0.4957813E+00 -0.6587514E-01  0.3562773E-01
 -0.4900000E+02 -0.3400000E+02  0.7586516E-01 -0.5107533E+00 -0.6618299E-01  0.3708551E-01
 -0.4900000E+02 -0.3300000E+02  0.7684138E-01 -0.5254455E+00 -0.6647552E-01  0.3854352E-01
 -0.4900000E+02 -0.3200000E+02  0.7782212E-01 -0.5398242E+00 -0.6675574E-01  0.3999942E-01
 -0.4900000E+02 -0.3100000E+02  0.7880700E-01 -0.5538245E+00 -0.6702688E-01  0.4144806E-01
 -0.4900000E+02 -0.3000000E+02  0.7979457E-01 -0.5674421E+00 -0.6728905E-01  0.4288773E-01
 -0.4900000E+02 -0.2900000E+02  0.8078420E-01 -0.5806829E+00 -0.6754272E-01  0.4431781E-01
 -0.4900000E+02 -0.2800000E+02  0.8177190E-01 -0.5935242E+00 -0.6778685E-01  0.4573388E-01
 -0.4900000E+02 -0.2700000E+02  0.8275719E-01 -0.6059784E+00 -0.6802188E-01  0.4713573E-01
 -0.4900000E+02 -0.2600000E+02  0.8373716E-01 -0.6180378E+00 -0.6824721E-01  0.4852042E-01
 -0.4900000E+02 -0.2500000E+02  0.8471019E-01 -0.6297056E+00 -0.6846285E-01  0.4988641E-01
 -0.4900000E+02 -0.2400000E+02  0.8567312E-01 -0.6409734E+00 -0.6866821E-01  0.5123046E-01
 -0.4900000E+02 -0.2300000E+02  0.8662405E-01 -0.6518418E+00 -0.6886333E-01  0.5255062E-01
 -0.4900000E+02 -0.2200000E+02  0.8756083E-01 -0.6623093E+00 -0.6904822E-01  0.5384462E-01
 -0.4900000E+02 -0.2100000E+02  0.8848034E-01 -0.6723701E+00 -0.6922238E-01  0.5510927E-01
 -0.4900000E+02 -0.2000000E+02  0.8938128E-01 -0.6820052E+00 -0.6938761E-01  0.5634158E-01
 -0.4900000E+02 -0.1900000E+02  0.9025809E-01 -0.6913358E+00 -0.6953438E-01  0.5754557E-01
 -0.4900000E+02 -0.1800000E+02  0.9110852E-01 -0.7003617E+00 -0.6966241E-01  0.5871892E-01
 -0.4900000E+02 -0.1700000E+02  0.9193002E-01 -0.7090220E+00 -0.6977480E-01  0.5985488E-01
 -0.4900000E+02 -0.1600000E+02  0.9272053E-01 -0.7172740E+00 -0.6987423E-01  0.6094825E-01
 -0.4900000E+02 -0.1500000E+02  0.9347810E-01 -0.7251093E+00 -0.6996153E-01  0.6199628E-01
 -0.4900000E+02 -0.1400000E+02  0.9420085E-01 -0.7324923E+00 -0.7003928E-01  0.6299444E-01
 -0.4900000E+02 -0.1300000E+02  0.9488636E-01 -0.7394353E+00 -0.7010671E-01  0.6394114E-01
 -0.4900000E+02 -0.1200000E+02  0.9553261E-01 -0.7458963E+00 -0.7016679E-01  0.6483133E-01
 -0.4900000E+02 -0.1100000E+02  0.9613814E-01 -0.7518640E+00 -0.7022094E-01  0.6566249E-01
 -0.4900000E+02 -0.1000000E+02  0.9669969E-01 -0.7573044E+00 -0.7027074E-01  0.6642932E-01
 -0.4900000E+02 -0.9000000E+01  0.9721455E-01 -0.7622251E+00 -0.7031541E-01  0.6712981E-01
 -0.4900000E+02 -0.8000000E+01  0.9768149E-01 -0.7666131E+00 -0.7035649E-01  0.6776162E-01
 -0.4900000E+02 -0.7000000E+01  0.9809851E-01 -0.7704836E+00 -0.7039293E-01  0.6832388E-01
 -0.4900000E+02 -0.6000000E+01  0.9846317E-01 -0.7738375E+00 -0.7042421E-01  0.6881444E-01
 -0.4900000E+02 -0.5000000E+01  0.9877416E-01 -0.7766687E+00 -0.7045090E-01  0.6923153E-01
 -0.4900000E+02 -0.4000000E+01  0.9903057E-01 -0.7789788E+00 -0.7047326E-01  0.6957423E-01
 -0.4900000E+02 -0.3000000E+01  0.9923139E-01 -0.7807779E+00 -0.7049063E-01  0.6984226E-01
 -0.4900000E+02 -0.2000000E+01  0.9937488E-01 -0.7820640E+00 -0.7050255E-01  0.7003397E-01
 -0.4900000E+02 -0.1000000E+01  0.9946205E-01 -0.7828370E+00 -0.7051019E-01  0.7014993E-01
 -0.4900000E+02  0.0000000E+00  0.9949044E-01 -0.7830985E+00 -0.7051197E-01  0.7018840E-01
 -0.4900000E+02  0.1000000E+01  0.9946190E-01 -0.7828364E+00 -0.7051012E-01  0.7014979E-01
 -0.4900000E+02  0.2000000E+01  0.9937501E-01 -0.7820635E+00 -0.7050268E-01  0.7003403E-01
 -0.4900000E+02  0.3000000E+01  0.9923118E-01 -0.7807777E+00 -0.7049049E-01  0.6984209E-01
 -0.4900000E+02  0.4000000E+01  0.9903061E-01 -0.7789785E+00 -0.7047331E-01  0.6957424E-01
 -0.4900000E+02  0.5000000E+01  0.9877431E-01 -0.7766685E+00 -0.7045103E-01  0.6923162E-01
 -0.4900000E+02  0.6000000E+01  0.9846291E-01 -0.7738380E+00 -0.7042398E-01  0.6881430E-01
 -0.4900000E+02  0.7000000E+01  0.9809826E-01 -0.7704846E+00 -0.7039268E-01  0.6832377E-01
 -0.4900000E+02  0.8000000E+01  0.9768168E-01 -0.7666140E+00 -0.7035656E-01  0.6776182E-01
 -0.4900000E+02  0.9000000E+01  0.9721476E-01 -0.7622240E+00 -0.7031563E-01  0.6712988E-01
 -0.4900000E+02  0.1000000E+02  0.9669972E-01 -0.7573053E+00 -0.7027070E-01  0.6642939E-01
 -0.4900000E+02  0.1100000E+02  0.9613796E-01 -0.7518662E+00 -0.7022066E-01  0.6566251E-01
 -0.4900000E+02  0.1200000E+02  0.9553278E-01 -0.7458967E+00 -0.7016689E-01  0.6483148E-01
 -0.4900000E+02  0.1300000E+02  0.9488621E-01 -0.7394320E+00 -0.7010682E-01  0.6394082E-01
 -0.4900000E+02  0.1400000E+02  0.9420086E-01 -0.7324914E+00 -0.7003934E-01  0.6299438E-01
 -0.4900000E+02  0.1500000E+02  0.9347802E-01 -0.7251086E+00 -0.6996151E-01  0.6199618E-01
 -0.4900000E+02  0.1600000E+02  0.9272055E-01 -0.7172751E+00 -0.6987418E-01  0.6094833E-01
 -0.4900000E+02  0.1700000E+02  0.9192985E-01 -0.7090214E+00 -0.6977470E-01  0.5985473E-01
 -0.4900000E+02  0.1800000E+02  0.9110879E-01 -0.7003582E+00 -0.6966282E-01  0.5871885E-01
 -0.4900000E+02  0.1900000E+02  0.9025814E-01 -0.6913369E+00 -0.6953436E-01  0.5754568E-01
 -0.4900000E+02  0.2000000E+02  0.8938122E-01 -0.6820061E+00 -0.6938751E-01  0.5634160E-01
 -0.4900000E+02  0.2100000E+02  0.8848046E-01 -0.6723704E+00 -0.6922247E-01  0.5510936E-01
 -0.4900000E+02  0.2200000E+02  0.8756080E-01 -0.6623090E+00 -0.6904820E-01  0.5384457E-01
 -0.4900000E+02  0.2300000E+02  0.8662397E-01 -0.6518408E+00 -0.6886332E-01  0.5255050E-01
 -0.4900000E+02  0.2400000E+02  0.8567292E-01 -0.6409727E+00 -0.6866809E-01  0.5123030E-01
 -0.4900000E+02  0.2500000E+02  0.8471005E-01 -0.6297063E+00 -0.6846271E-01  0.4988638E-01
 -0.4900000E+02  0.2600000E+02  0.8373719E-01 -0.6180388E+00 -0.6824718E-01  0.4852050E-01
 -0.4900000E+02  0.2700000E+02  0.8275706E-01 -0.6059787E+00 -0.6802175E-01  0.4713567E-01
 -0.4900000E+02  0.2800000E+02  0.8177196E-01 -0.5935240E+00 -0.6778690E-01  0.4573390E-01
 -0.4900000E+02  0.2900000E+02  0.8078387E-01 -0.5806803E+00 -0.6754255E-01  0.4431745E-01
 -0.4900000E+02  0.3000000E+02  0.7979456E-01 -0.5674415E+00 -0.6728906E-01  0.4288768E-01
 -0.4900000E+02  0.3100000E+02  0.7880688E-01 -0.5538245E+00 -0.6702677E-01  0.4144800E-01
 -0.4900000E+02  0.3200000E+02  0.7782202E-01 -0.5398238E+00 -0.6675567E-01  0.3999934E-01
 -0.4900000E+02  0.3300000E+02  0.7684129E-01 -0.5254481E+00 -0.6647535E-01  0.3854365E-01
 -0.4900000E+02  0.3400000E+02  0.7586519E-01 -0.5107507E+00 -0.6618311E-01  0.3708535E-01
 -0.4900000E+02  0.3500000E+02  0.7489233E-01 -0.4957819E+00 -0.6587508E-01  0.3562775E-01
 -0.4900000E+02  0.3600000E+02  0.7392171E-01 -0.4806025E+00 -0.6554760E-01  0.3417500E-01
 -0.4900000E+02  0.3700000E+02  0.7295047E-01 -0.4652734E+00 -0.6519576E-01  0.3273048E-01
 -0.4900000E+02  0.3800000E+02  0.7197817E-01 -0.4498617E+00 -0.6481686E-01  0.3129906E-01
 -0.4900000E+02  0.3900000E+02  0.7101423E-01 -0.4341794E+00 -0.6442522E-01  0.2987328E-01
 -0.4900000E+02  0.4000000E+02  0.7005923E-01 -0.4182552E+00 -0.6402006E-01  0.2845572E-01
 -0.4900000E+02  0.4100000E+02  0.6911331E-01 -0.4020794E+00 -0.6360147E-01  0.2704630E-01
 -0.4900000E+02  0.4200000E+02  0.6817740E-01 -0.3856669E+00 -0.6316962E-01  0.2564678E-01
 -0.4900000E+02  0.4300000E+02  0.6725251E-01 -0.3690101E+00 -0.6272539E-01  0.2425747E-01
 -0.4900000E+02  0.4400000E+02  0.6634481E-01 -0.3519405E+00 -0.6227825E-01  0.2287038E-01
 -0.4900000E+02  0.4500000E+02  0.6545381E-01 -0.3344778E+00 -0.6182649E-01  0.2148691E-01
 -0.4900000E+02  0.4600000E+02  0.6458159E-01 -0.3165935E+00 -0.6137198E-01  0.2010626E-01
 -0.4900000E+02  0.4700000E+02  0.6372863E-01 -0.2983257E+00 -0.6091373E-01  0.1873114E-01
 -0.4900000E+02  0.4800000E+02  0.6289583E-01 -0.2796644E+00 -0.6045221E-01  0.1736133E-01
 -0.4900000E+02  0.4900000E+02  0.6208301E-01 -0.2606275E+00 -0.5998637E-01  0.1599798E-01
 -0.4900000E+02  0.5000000E+02  0.6128729E-01 -0.2412954E+00 -0.5951175E-01  0.1464526E-01
 -0.4800000E+02 -0.5000000E+02  0.6116046E-01 -0.2622435E+00 -0.5906943E-01  0.1585573E-01
 -0.4800000E+02 -0.4900000E+02  0.6197672E-01 -0.2816718E+00 -0.5953434E-01  0.1722717E-01
 -0.4800000E+02 -0.4800000E+02  0.6281443E-01 -0.3007278E+00 -0.5999539E-01  0.1860660E-01
 -0.4800000E+02 -0.4700000E+02  0.6367329E-01 -0.3193859E+00 -0.6045323E-01  0.1999237E-01
 -0.4800000E+02 -0.4600000E+02  0.6455332E-01 -0.3376381E+00 -0.6090862E-01  0.2138390E-01
 -0.4800000E+02 -0.4500000E+02  0.6545301E-01 -0.3555057E+00 -0.6136027E-01  0.2278187E-01
 -0.4800000E+02 -0.4400000E+02  0.6637286E-01 -0.3729144E+00 -0.6181102E-01  0.2418170E-01
 -0.4800000E+02 -0.4300000E+02  0.6730697E-01 -0.3900688E+00 -0.6225107E-01  0.2559362E-01
 -0.4800000E+02 -0.4200000E+02  0.6825340E-01 -0.4069938E+00 -0.6267812E-01  0.2701814E-01
 -0.4800000E+02 -0.4100000E+02  0.6921206E-01 -0.4236852E+00 -0.6309233E-01  0.2845464E-01
 -0.4800000E+02 -0.4000000E+02  0.7018171E-01 -0.4401390E+00 -0.6349286E-01  0.2990199E-01
 -0.4800000E+02 -0.3900000E+02  0.7116245E-01 -0.4563610E+00 -0.6387983E-01  0.3136019E-01
 -0.4800000E+02 -0.3800000E+02  0.7215344E-01 -0.4723256E+00 -0.6425355E-01  0.3282682E-01
 -0.4800000E+02 -0.3700000E+02  0.7314646E-01 -0.4881828E+00 -0.6460197E-01  0.3430728E-01
 -0.4800000E+02 -0.3600000E+02  0.7414122E-01 -0.5039222E+00 -0.6492513E-01  0.3580012E-01
 -0.4800000E+02 -0.3500000E+02  0.7514043E-01 -0.5194599E+00 -0.6522846E-01  0.3730056E-01
 -0.4800000E+02 -0.3400000E+02  0.7614546E-01 -0.5347430E+00 -0.6551553E-01  0.3880524E-01
 -0.4800000E+02 -0.3300000E+02  0.7715756E-01 -0.5496965E+00 -0.6579095E-01  0.4030931E-01
 -0.4800000E+02 -0.3200000E+02  0.7817683E-01 -0.5642773E+00 -0.6605749E-01  0.4180938E-01
 -0.4800000E+02 -0.3100000E+02  0.7920185E-01 -0.5784751E+00 -0.6631550E-01  0.4330343E-01
 -0.4800000E+02 -0.3000000E+02  0.8023099E-01 -0.5922925E+00 -0.6656469E-01  0.4479011E-01
 -0.4800000E+02 -0.2900000E+02  0.8126228E-01 -0.6057307E+00 -0.6680461E-01  0.4626773E-01
 -0.4800000E+02 -0.2800000E+02  0.8229335E-01 -0.6187717E+00 -0.6703547E-01  0.4773303E-01
 -0.4800000E+02 -0.2700000E+02  0.8332209E-01 -0.6314168E+00 -0.6725693E-01  0.4918411E-01
 -0.4800000E+02 -0.2600000E+02  0.8434672E-01 -0.6436794E+00 -0.6746835E-01  0.5062006E-01
 -0.4800000E+02 -0.2500000E+02  0.8536408E-01 -0.6555386E+00 -0.6766979E-01  0.5203677E-01
 -0.4800000E+02 -0.2400000E+02  0.8637062E-01 -0.6669245E+00 -0.6786379E-01  0.5342649E-01
 -0.4800000E+02 -0.2300000E+02  0.8736322E-01 -0.6778429E+00 -0.6804959E-01  0.5478672E-01
 -0.4800000E+02 -0.2200000E+02  0.8833967E-01 -0.6883248E+00 -0.6822572E-01  0.5611727E-01
 -0.4800000E+02 -0.2100000E+02  0.8929737E-01 -0.6983335E+00 -0.6839417E-01  0.5741305E-01
 -0.4800000E+02 -0.2000000E+02  0.9023081E-01 -0.7080461E+00 -0.6854239E-01  0.5868167E-01
 -0.4800000E+02 -0.1900000E+02  0.9113845E-01 -0.7173951E+00 -0.6867472E-01  0.5991662E-01
 -0.4800000E+02 -0.1800000E+02  0.9201796E-01 -0.7263425E+00 -0.6879341E-01  0.6111278E-01
 -0.4800000E+02 -0.1700000E+02  0.9286727E-01 -0.7348681E+00 -0.6890001E-01  0.6226651E-01
 -0.4800000E+02 -0.1600000E+02  0.9368342E-01 -0.7429315E+00 -0.6899679E-01  0.6337214E-01
 -0.4800000E+02 -0.1500000E+02  0.9446546E-01 -0.7505357E+00 -0.6908482E-01  0.6442834E-01
 -0.4800000E+02 -0.1400000E+02  0.9520929E-01 -0.7576296E+00 -0.6916641E-01  0.6542795E-01
 -0.4800000E+02 -0.1300000E+02  0.9591445E-01 -0.7642213E+00 -0.6924269E-01  0.6637040E-01
 -0.4800000E+02 -0.1200000E+02  0.9657665E-01 -0.7702892E+00 -0.6931397E-01  0.6725046E-01
 -0.4800000E+02 -0.1100000E+02  0.9719580E-01 -0.7758371E+00 -0.6938177E-01  0.6806757E-01
 -0.4800000E+02 -0.1000000E+02  0.9776866E-01 -0.7808793E+00 -0.6944457E-01  0.6881978E-01
 -0.4800000E+02 -0.9000000E+01  0.9829298E-01 -0.7854186E+00 -0.6950221E-01  0.6950506E-01
 -0.4800000E+02 -0.8000000E+01  0.9876782E-01 -0.7894707E+00 -0.6955440E-01  0.7012325E-01
 -0.4800000E+02 -0.7000000E+01  0.9919193E-01 -0.7930580E+00 -0.6959998E-01  0.7067449E-01
 -0.4800000E+02 -0.6000000E+01  0.9956549E-01 -0.7962083E+00 -0.6963827E-01  0.7116038E-01
 -0.4800000E+02 -0.5000000E+01  0.9988602E-01 -0.7989063E+00 -0.6966958E-01  0.7157769E-01
 -0.4800000E+02 -0.4000000E+01  0.1001517E+00 -0.8011500E+00 -0.6969367E-01  0.7192460E-01
 -0.4800000E+02 -0.3000000E+01  0.1003595E+00 -0.8028890E+00 -0.6971284E-01  0.7219518E-01
 -0.4800000E+02 -0.2000000E+01  0.1005086E+00 -0.8041280E+00 -0.6972676E-01  0.7238887E-01
 -0.4800000E+02 -0.1000000E+01  0.1005979E+00 -0.8048729E+00 -0.6973476E-01  0.7250520E-01
 -0.4800000E+02  0.0000000E+00  0.1006280E+00 -0.8051211E+00 -0.6973760E-01  0.7254418E-01
 -0.4800000E+02  0.1000000E+01  0.1005977E+00 -0.8048757E+00 -0.6973440E-01  0.7250523E-01
 -0.4800000E+02  0.2000000E+01  0.1005087E+00 -0.8041294E+00 -0.6972675E-01  0.7238906E-01
 -0.4800000E+02  0.3000000E+01  0.1003594E+00 -0.8028893E+00 -0.6971273E-01  0.7219512E-01
 -0.4800000E+02  0.4000000E+01  0.1001515E+00 -0.8011513E+00 -0.6969343E-01  0.7192454E-01
 -0.4800000E+02  0.5000000E+01  0.9988626E-01 -0.7989055E+00 -0.6966981E-01  0.7157781E-01
 -0.4800000E+02  0.6000000E+01  0.9956551E-01 -0.7962095E+00 -0.6963820E-01  0.7116047E-01
 -0.4800000E+02  0.7000000E+01  0.9919205E-01 -0.7930568E+00 -0.6960014E-01  0.7067448E-01
 -0.4800000E+02  0.8000000E+01  0.9876773E-01 -0.7894726E+00 -0.6955419E-01  0.7012331E-01
 -0.4800000E+02  0.9000000E+01  0.9829281E-01 -0.7854225E+00 -0.6950182E-01  0.6950521E-01
 -0.4800000E+02  0.1000000E+02  0.9776854E-01 -0.7808786E+00 -0.6944454E-01  0.6881964E-01
 -0.4800000E+02  0.1100000E+02  0.9719589E-01 -0.7758384E+00 -0.6938175E-01  0.6806772E-01
 -0.4800000E+02  0.1200000E+02  0.9657670E-01 -0.7702904E+00 -0.6931391E-01  0.6725057E-01
 -0.4800000E+02  0.1300000E+02  0.9591455E-01 -0.7642205E+00 -0.6924282E-01  0.6637042E-01
 -0.4800000E+02  0.1400000E+02  0.9520941E-01 -0.7576313E+00 -0.6916638E-01  0.6542815E-01
 -0.4800000E+02  0.1500000E+02  0.9446520E-01 -0.7505361E+00 -0.6908461E-01  0.6442820E-01
 -0.4800000E+02  0.1600000E+02  0.9368361E-01 -0.7429343E+00 -0.6899674E-01  0.6337246E-01
 -0.4800000E+02  0.1700000E+02  0.9286746E-01 -0.7348666E+00 -0.6890024E-01  0.6226653E-01
 -0.4800000E+02  0.1800000E+02  0.9201783E-01 -0.7263418E+00 -0.6879335E-01  0.6111265E-01
 -0.4800000E+02  0.1900000E+02  0.9113864E-01 -0.7173938E+00 -0.6867494E-01  0.5991665E-01
 -0.4800000E+02  0.2000000E+02  0.9023097E-01 -0.7080439E+00 -0.6854264E-01  0.5868163E-01
 -0.4800000E+02  0.2100000E+02  0.8929731E-01 -0.6983336E+00 -0.6839412E-01  0.5741302E-01
 -0.4800000E+02  0.2200000E+02  0.8833950E-01 -0.6883254E+00 -0.6822556E-01  0.5611721E-01
 -0.4800000E+02  0.2300000E+02  0.8736300E-01 -0.6778414E+00 -0.6804951E-01  0.5478648E-01
 -0.4800000E+02  0.2400000E+02  0.8637056E-01 -0.6669242E+00 -0.6786376E-01  0.5342642E-01
 -0.4800000E+02  0.2500000E+02  0.8536409E-01 -0.6555378E+00 -0.6766984E-01  0.5203672E-01
 -0.4800000E+02  0.2600000E+02  0.8434673E-01 -0.6436784E+00 -0.6746840E-01  0.5062000E-01
 -0.4800000E+02  0.2700000E+02  0.8332209E-01 -0.6314219E+00 -0.6725667E-01  0.4918445E-01
 -0.4800000E+02  0.2800000E+02  0.8229344E-01 -0.6187714E+00 -0.6703555E-01  0.4773306E-01
 -0.4800000E+02  0.2900000E+02  0.8126233E-01 -0.6057278E+00 -0.6680478E-01  0.4626757E-01
 -0.4800000E+02  0.3000000E+02  0.8023103E-01 -0.5922930E+00 -0.6656469E-01  0.4479016E-01
 -0.4800000E+02  0.3100000E+02  0.7920209E-01 -0.5784752E+00 -0.6631570E-01  0.4330358E-01
 -0.4800000E+02  0.3200000E+02  0.7817658E-01 -0.5642763E+00 -0.6605732E-01  0.4180918E-01
 -0.4800000E+02  0.3300000E+02  0.7715744E-01 -0.5496975E+00 -0.6579080E-01  0.4030931E-01
 -0.4800000E+02  0.3400000E+02  0.7614533E-01 -0.5347433E+00 -0.6551540E-01  0.3880519E-01
 -0.4800000E+02  0.3500000E+02  0.7514040E-01 -0.5194606E+00 -0.6522841E-01  0.3730059E-01
 -0.4800000E+02  0.3600000E+02  0.7414103E-01 -0.5039230E+00 -0.6492493E-01  0.3580008E-01
 -0.4800000E+02  0.3700000E+02  0.7314643E-01 -0.4881813E+00 -0.6460200E-01  0.3430717E-01
 -0.4800000E+02  0.3800000E+02  0.7215344E-01 -0.4723229E+00 -0.6425364E-01  0.3282665E-01
 -0.4800000E+02  0.3900000E+02  0.7116240E-01 -0.4563606E+00 -0.6387980E-01  0.3136014E-01
 -0.4800000E+02  0.4000000E+02  0.7018181E-01 -0.4401421E+00 -0.6349286E-01  0.2990222E-01
 -0.4800000E+02  0.4100000E+02  0.6921205E-01 -0.4236855E+00 -0.6309231E-01  0.2845466E-01
 -0.4800000E+02  0.4200000E+02  0.6825341E-01 -0.4069921E+00 -0.6267817E-01  0.2701804E-01
 -0.4800000E+02  0.4300000E+02  0.6730708E-01 -0.3900719E+00 -0.6225109E-01  0.2559385E-01
 -0.4800000E+02  0.4400000E+02  0.6637283E-01 -0.3729132E+00 -0.6181102E-01  0.2418161E-01
 -0.4800000E+02  0.4500000E+02  0.6545304E-01 -0.3555078E+00 -0.6136025E-01  0.2278201E-01
 -0.4800000E+02  0.4600000E+02  0.6455328E-01 -0.3376379E+00 -0.6090859E-01  0.2138387E-01
 -0.4800000E+02  0.4700000E+02  0.6367326E-01 -0.3193856E+00 -0.6045321E-01  0.1999234E-01
 -0.4800000E+02  0.4800000E+02  0.6281443E-01 -0.3007270E+00 -0.5999541E-01  0.1860655E-01
 -0.4800000E+02  0.4900000E+02  0.6197691E-01 -0.2816787E+00 -0.5953440E-01  0.1722763E-01
 -0.4800000E+02  0.5000000E+02  0.6116039E-01 -0.2622385E+00 -0.5906944E-01  0.1585541E-01
 -0.4700000E+02 -0.5000000E+02  0.6102519E-01 -0.2828780E+00 -0.5859981E-01  0.1703338E-01
 -0.4700000E+02 -0.4900000E+02  0.6186491E-01 -0.3023192E+00 -0.5905924E-01  0.1841935E-01
 -0.4700000E+02 -0.4800000E+02  0.6272743E-01 -0.3213651E+00 -0.5951611E-01  0.1981321E-01
 -0.4700000E+02 -0.4700000E+02  0.6361283E-01 -0.3400047E+00 -0.5997119E-01  0.2121434E-01
 -0.4700000E+02 -0.4600000E+02  0.6452034E-01 -0.3582043E+00 -0.6042510E-01  0.2262038E-01
 -0.4700000E+02 -0.4500000E+02  0.6544659E-01 -0.3760723E+00 -0.6087280E-01  0.2403658E-01
 -0.4700000E+02 -0.4400000E+02  0.6638740E-01 -0.3937248E+00 -0.6130787E-01  0.2546826E-01
 -0.4700000E+02 -0.4300000E+02  0.6734234E-01 -0.4111456E+00 -0.6173027E-01  0.2691402E-01
 -0.4700000E+02 -0.4200000E+02  0.6831137E-01 -0.4283531E+00 -0.6213951E-01  0.2837472E-01
 -0.4700000E+02 -0.4100000E+02  0.6929356E-01 -0.4453323E+00 -0.6253519E-01  0.2984874E-01
 -0.4700000E+02 -0.4000000E+02  0.7028791E-01 -0.4620809E+00 -0.6291659E-01  0.3133518E-01
 -0.4700000E+02 -0.3900000E+02  0.7129525E-01 -0.4785856E+00 -0.6328502E-01  0.3283318E-01
 -0.4700000E+02 -0.3800000E+02  0.7230881E-01 -0.4949570E+00 -0.6363097E-01  0.3434624E-01
 -0.4700000E+02 -0.3700000E+02  0.7332575E-01 -0.5112463E+00 -0.6394999E-01  0.3587569E-01
 -0.4700000E+02 -0.3600000E+02  0.7434896E-01 -0.5273504E+00 -0.6424817E-01  0.3741578E-01
 -0.4700000E+02 -0.3500000E+02  0.7538088E-01 -0.5431990E+00 -0.6453052E-01  0.3896265E-01
 -0.4700000E+02 -0.3400000E+02  0.7642247E-01 -0.5587221E+00 -0.6480115E-01  0.4051178E-01
 -0.4700000E+02 -0.3300000E+02  0.7747421E-01 -0.5738797E+00 -0.6506293E-01  0.4206030E-01
 -0.4700000E+02 -0.3200000E+02  0.7853448E-01 -0.5886549E+00 -0.6531621E-01  0.4360571E-01
 -0.4700000E+02 -0.3100000E+02  0.7960195E-01 -0.6030595E+00 -0.6556050E-01  0.4514743E-01
 -0.4700000E+02 -0.3000000E+02  0.8067448E-01 -0.6170673E+00 -0.6579641E-01  0.4668195E-01
 -0.4700000E+02 -0.2900000E+02  0.8174980E-01 -0.6306893E+00 -0.6602288E-01  0.4820799E-01
 -0.4700000E+02 -0.2800000E+02  0.8282473E-01 -0.6438624E+00 -0.6624182E-01  0.4971877E-01
 -0.4700000E+02 -0.2700000E+02  0.8389506E-01 -0.6565480E+00 -0.6645361E-01  0.5120838E-01
 -0.4700000E+02 -0.2600000E+02  0.8496043E-01 -0.6688021E+00 -0.6665698E-01  0.5267943E-01