 VARIABLES="X" "Y" "abs(eta) (m)" "angle(phi) (rad)" "PRE1" "PRE2"
ZONE N=  10201 ,E =   10000 ,F=FEPOINT,ET=QUADRILATERAL
 -0.5000000E+02 -0.5000000E+02  0.1887004E+00 -0.4968050E+00 -0.1658884E+00  0.8993824E-01
 -0.5000000E+02 -0.4900000E+02  0.1927441E+00 -0.5687387E+00 -0.1624025E+00  0.1038062E+00
 -0.5000000E+02 -0.4800000E+02  0.1968866E+00 -0.6397604E+00 -0.1579501E+00  0.1175420E+00
 -0.5000000E+02 -0.4700000E+02  0.2011889E+00 -0.7092634E+00 -0.1526706E+00  0.1310293E+00
 -0.5000000E+02 -0.4600000E+02  0.2055653E+00 -0.7786018E+00 -0.1463411E+00  0.1443654E+00
 -0.5000000E+02 -0.4500000E+02  0.2100553E+00 -0.8472136E+00 -0.1390721E+00  0.1574235E+00
 -0.5000000E+02 -0.4400000E+02  0.2146991E+00 -0.9147418E+00 -0.1309654E+00  0.1701287E+00
 -0.5000000E+02 -0.4300000E+02  0.2194943E+00 -0.9809325E+00 -0.1220933E+00  0.1824034E+00
 -0.5000000E+02 -0.4200000E+02  0.2243194E+00 -0.1046770E+01 -0.1122427E+00  0.1942184E+00
 -0.5000000E+02 -0.4100000E+02  0.2292598E+00 -0.1111956E+01 -0.1015412E+00  0.2055467E+00
 -0.5000000E+02 -0.4000000E+02  0.2343655E+00 -0.1175869E+01 -0.9016994E-01  0.2163251E+00
 -0.5000000E+02 -0.3900000E+02  0.2396428E+00 -0.1238348E+01 -0.7820946E-01  0.2265214E+00
 -0.5000000E+02 -0.3800000E+02  0.2450076E+00 -0.1299958E+01 -0.6554914E-01  0.2360763E+00
 -0.5000000E+02 -0.3700000E+02  0.2504655E+00 -0.1360785E+01 -0.5221467E-01  0.2449625E+00
 -0.5000000E+02 -0.3600000E+02  0.2560496E+00 -0.1420555E+01 -0.3832480E-01  0.2531652E+00
 -0.5000000E+02 -0.3500000E+02  0.2617704E+00 -0.1478971E+01 -0.2400350E-01  0.2606676E+00
 -0.5000000E+02 -0.3400000E+02  0.2676285E+00 -0.1536068E+01 -0.9292499E-02  0.2674671E+00
 -0.5000000E+02 -0.3300000E+02  0.2735296E+00 -0.1592505E+01  0.5937363E-02  0.2734651E+00
 -0.5000000E+02 -0.3200000E+02  0.2795410E+00 -0.1647714E+01  0.2148056E-01  0.2787144E+00
 -0.5000000E+02 -0.3100000E+02  0.2856987E+00 -0.1701512E+01  0.3723905E-01  0.2832614E+00
 -0.5000000E+02 -0.3000000E+02  0.2919977E+00 -0.1753784E+01  0.5313442E-01  0.2871226E+00
 -0.5000000E+02 -0.2900000E+02  0.2983709E+00 -0.1804819E+01  0.6918991E-01  0.2902377E+00
 -0.5000000E+02 -0.2800000E+02  0.3047894E+00 -0.1854735E+01  0.8538321E-01  0.2925855E+00
 -0.5000000E+02 -0.2700000E+02  0.3112894E+00 -0.1903257E+01  0.1015956E+00  0.2942438E+00
 -0.5000000E+02 -0.2600000E+02  0.3178807E+00 -0.1950321E+01  0.1177682E+00  0.2952606E+00
 -0.5000000E+02 -0.2500000E+02  0.3245699E+00 -0.1995786E+01  0.1338240E+00  0.2956971E+00
 -0.5000000E+02 -0.2400000E+02  0.3312667E+00 -0.2039935E+01  0.1497718E+00  0.2954760E+00
 -0.5000000E+02 -0.2300000E+02  0.3379635E+00 -0.2082816E+01  0.1655816E+00  0.2946219E+00
 -0.5000000E+02 -0.2200000E+02  0.3446839E+00 -0.2124189E+01  0.1811579E+00  0.2932385E+00
 -0.5000000E+02 -0.2100000E+02  0.3514400E+00 -0.2163975E+01  0.1964547E+00  0.2914028E+00
 -0.5000000E+02 -0.2000000E+02  0.3582415E+00 -0.2202106E+01  0.2114352E+00  0.2891922E+00
 -0.5000000E+02 -0.1900000E+02  0.3650561E+00 -0.2238628E+01  0.2260737E+00  0.2866298E+00
 -0.5000000E+02 -0.1800000E+02  0.3717572E+00 -0.2273836E+01  0.2403558E+00  0.2836063E+00
 -0.5000000E+02 -0.1700000E+02  0.3784167E+00 -0.2307418E+01  0.2542163E+00  0.2803092E+00
 -0.5000000E+02 -0.1600000E+02  0.3850349E+00 -0.2339269E+01  0.2676138E+00  0.2768297E+00
 -0.5000000E+02 -0.1500000E+02  0.3915931E+00 -0.2369381E+01  0.2805252E+00  0.2732230E+00
 -0.5000000E+02 -0.1400000E+02  0.3981024E+00 -0.2397681E+01  0.2929338E+00  0.2695836E+00
 -0.5000000E+02 -0.1300000E+02  0.4045088E+00 -0.2424257E+01  0.3048215E+00  0.2659158E+00
 -0.5000000E+02 -0.1200000E+02  0.4106842E+00 -0.2449324E+01  0.3161447E+00  0.2621336E+00
 -0.5000000E+02 -0.1100000E+02  0.4167148E+00 -0.2472667E+01  0.3269078E+00  0.2584232E+00
 -0.5000000E+02 -0.1000000E+02  0.4225694E+00 -0.2494182E+01  0.3370617E+00  0.2548613E+00
 -0.5000000E+02 -0.9000000E+01  0.4282579E+00 -0.2513828E+01  0.3466072E+00  0.2515319E+00
 -0.5000000E+02 -0.8000000E+01  0.4337515E+00 -0.2531641E+01  0.3555356E+00  0.2484649E+00
 -0.5000000E+02 -0.7000000E+01  0.4390523E+00 -0.2547575E+01  0.3638421E+00  0.2457353E+00
 -0.5000000E+02 -0.6000000E+01  0.4440984E+00 -0.2561687E+01  0.3714947E+00  0.2433415E+00
 -0.5000000E+02 -0.5000000E+01  0.4487835E+00 -0.2574125E+01  0.3784434E+00  0.2412204E+00
 -0.5000000E+02 -0.4000000E+01  0.4531538E+00 -0.2584762E+01  0.3846979E+00  0.2394910E+00
 -0.5000000E+02 -0.3000000E+01  0.4572147E+00 -0.2593597E+01  0.3902649E+00  0.2381985E+00
 -0.5000000E+02 -0.2000000E+01  0.4609559E+00 -0.2600581E+01  0.3951259E+00  0.2373940E+00
 -0.5000000E+02 -0.1000000E+01  0.4643933E+00 -0.2605641E+01  0.3992774E+00  0.2371470E+00
 -0.5000000E+02  0.0000000E+00  0.4674990E+00 -0.2608806E+01  0.4027013E+00  0.2374595E+00
 -0.5000000E+02  0.1000000E+01  0.4702591E+00 -0.2610127E+01  0.4053941E+00  0.2383258E+00
 -0.5000000E+02  0.2000000E+01  0.4726774E+00 -0.2609601E+01  0.4073527E+00  0.2397660E+00
 -0.5000000E+02  0.3000000E+01  0.4747563E+00 -0.2607225E+01  0.4085709E+00  0.2417921E+00
 -0.5000000E+02  0.4000000E+01  0.4764335E+00 -0.2603057E+01  0.4089994E+00  0.2443528E+00
 -0.5000000E+02  0.5000000E+01  0.4776927E+00 -0.2597083E+01  0.4086095E+00  0.2474441E+00
 -0.5000000E+02  0.6000000E+01  0.4785171E+00 -0.2589348E+01  0.4073851E+00  0.2510300E+00
 -0.5000000E+02  0.7000000E+01  0.4789276E+00 -0.2579823E+01  0.4053230E+00  0.2551174E+00
 -0.5000000E+02  0.8000000E+01  0.4789632E+00 -0.2568521E+01  0.4024438E+00  0.2597013E+00
 -0.5000000E+02  0.9000000E+01  0.4786251E+00 -0.2555410E+01  0.3987228E+00  0.2647682E+00
 -0.5000000E+02  0.1000000E+02  0.4779258E+00 -0.2540527E+01  0.3941613E+00  0.2702775E+00
 -0.5000000E+02  0.1100000E+02  0.4768748E+00 -0.2523877E+01  0.3887502E+00  0.2761936E+00
 -0.5000000E+02  0.1200000E+02  0.4754788E+00 -0.2505505E+01  0.3824875E+00  0.2824596E+00
 -0.5000000E+02  0.1300000E+02  0.4737360E+00 -0.2485354E+01  0.3753376E+00  0.2890459E+00
 -0.5000000E+02  0.1400000E+02  0.4716488E+00 -0.2463520E+01  0.3673122E+00  0.2958620E+00
 -0.5000000E+02  0.1500000E+02  0.4692508E+00 -0.2439943E+01  0.3584037E+00  0.3028912E+00
 -0.5000000E+02  0.1600000E+02  0.4665605E+00 -0.2414630E+01  0.3486124E+00  0.3100775E+00
 -0.5000000E+02  0.1700000E+02  0.4636022E+00 -0.2387654E+01  0.3379653E+00  0.3173428E+00
 -0.5000000E+02  0.1800000E+02  0.4603750E+00 -0.2358999E+01  0.3264458E+00  0.3246202E+00
 -0.5000000E+02  0.1900000E+02  0.4568921E+00 -0.2328694E+01  0.3140657E+00  0.3318329E+00
 -0.5000000E+02  0.2000000E+02  0.4531753E+00 -0.2296819E+01  0.3008635E+00  0.3388938E+00
 -0.5000000E+02  0.2100000E+02  0.4492367E+00 -0.2263288E+01  0.2868182E+00  0.3457585E+00
 -0.5000000E+02  0.2200000E+02  0.4451123E+00 -0.2228121E+01  0.2719642E+00  0.3523642E+00
 -0.5000000E+02  0.2300000E+02  0.4408248E+00 -0.2191400E+01  0.2563513E+00  0.3586231E+00
 -0.5000000E+02  0.2400000E+02  0.4363884E+00 -0.2153167E+01  0.2400158E+00  0.3644547E+00
 -0.5000000E+02  0.2500000E+02  0.4318081E+00 -0.2113457E+01  0.2229927E+00  0.3697735E+00
 -0.5000000E+02  0.2600000E+02  0.4270593E+00 -0.2072247E+01  0.2052867E+00  0.3744823E+00
 -0.5000000E+02  0.2700000E+02  0.4222229E+00 -0.2029552E+01  0.1869740E+00  0.3785669E+00
 -0.5000000E+02  0.2800000E+02  0.4173112E+00 -0.1985445E+01  0.1681216E+00  0.3819473E+00
 -0.5000000E+02  0.2900000E+02  0.4122951E+00 -0.1939979E+01  0.1487779E+00  0.3845157E+00
 -0.5000000E+02  0.3000000E+02  0.4071721E+00 -0.1893210E+01  0.1290153E+00  0.3861918E+00
 -0.5000000E+02  0.3100000E+02  0.4019481E+00 -0.1845104E+01  0.1088799E+00  0.3869205E+00
 -0.5000000E+02  0.3200000E+02  0.3966533E+00 -0.1795661E+01  0.8844365E-01  0.3866673E+00
 -0.5000000E+02  0.3300000E+02  0.3913077E+00 -0.1744959E+01  0.6780712E-01  0.3853880E+00
 -0.5000000E+02  0.3400000E+02  0.3859002E+00 -0.1693053E+01  0.4706143E-01  0.3830198E+00
 -0.5000000E+02  0.3500000E+02  0.3804873E+00 -0.1639969E+01  0.2629840E-01  0.3795774E+00
 -0.5000000E+02  0.3600000E+02  0.3751132E+00 -0.1585609E+01  0.5556116E-02  0.3750721E+00
 -0.5000000E+02  0.3700000E+02  0.3697482E+00 -0.1530008E+01 -0.1507735E-01  0.3694406E+00
 -0.5000000E+02  0.3800000E+02  0.3644244E+00 -0.1473294E+01 -0.3547606E-01  0.3626935E+00
 -0.5000000E+02  0.3900000E+02  0.3591045E+00 -0.1415555E+01 -0.5552414E-01  0.3547860E+00
 -0.5000000E+02  0.4000000E+02  0.3537692E+00 -0.1356756E+01 -0.7514386E-01  0.3456964E+00
 -0.5000000E+02  0.4100000E+02  0.3484478E+00 -0.1296861E+01 -0.9426280E-01  0.3354555E+00
 -0.5000000E+02  0.4200000E+02  0.3431191E+00 -0.1235931E+01 -0.1127633E+00  0.3240604E+00
 -0.5000000E+02  0.4300000E+02  0.3378877E+00 -0.1174076E+01 -0.1305583E+00  0.3116450E+00
 -0.5000000E+02  0.4400000E+02  0.3327088E+00 -0.1111245E+01 -0.1475716E+00  0.2981909E+00
 -0.5000000E+02  0.4500000E+02  0.3276113E+00 -0.1047400E+01 -0.1637481E+00  0.2837529E+00
 -0.5000000E+02  0.4600000E+02  0.3225721E+00 -0.9825992E+00 -0.1789830E+00  0.2683614E+00
 -0.5000000E+02  0.4700000E+02  0.3175683E+00 -0.9169151E+00 -0.1931678E+00  0.2520631E+00
 -0.5000000E+02  0.4800000E+02  0.3125921E+00 -0.8505350E+00 -0.2061798E+00  0.2349546E+00
 -0.5000000E+02  0.4900000E+02  0.3076586E+00 -0.7832646E+00 -0.2180111E+00  0.2170828E+00
 -0.5000000E+02  0.5000000E+02  0.3028421E+00 -0.7150003E+00 -0.2286740E+00  0.1985486E+00
 -0.4900000E+02 -0.5000000E+02  0.1864520E+00 -0.5700335E+00 -0.1569707E+00  0.1006207E+00
 -0.4900000E+02 -0.4900000E+02  0.1905058E+00 -0.6425749E+00 -0.1525104E+00  0.1141623E+00
 -0.4900000E+02 -0.4800000E+02  0.1947197E+00 -0.7135735E+00 -0.1472135E+00  0.1274517E+00
 -0.4900000E+02 -0.4700000E+02  0.1990038E+00 -0.7842365E+00 -0.1408803E+00  0.1405534E+00
 -0.4900000E+02 -0.4600000E+02  0.2034048E+00 -0.8544263E+00 -0.1335660E+00  0.1534068E+00
 -0.4900000E+02 -0.4500000E+02  0.2079421E+00 -0.9236622E+00 -0.1253688E+00  0.1658993E+00
 -0.4900000E+02 -0.4400000E+02  0.2126213E+00 -0.9915816E+00 -0.1163819E+00  0.1779412E+00
 -0.4900000E+02 -0.4300000E+02  0.2173754E+00 -0.1059007E+01 -0.1064570E+00  0.1895230E+00
 -0.4900000E+02 -0.4200000E+02  0.2222473E+00 -0.1125712E+01 -0.9568505E-01  0.2005948E+00
 -0.4900000E+02 -0.4100000E+02  0.2272860E+00 -0.1191314E+01 -0.8419572E-01  0.2111161E+00
 -0.4900000E+02 -0.4000000E+02  0.2324836E+00 -0.1255559E+01 -0.7207961E-01  0.2210275E+00
 -0.4900000E+02 -0.3900000E+02  0.2377947E+00 -0.1318826E+01 -0.5928522E-01  0.2302859E+00
 -0.4900000E+02 -0.3800000E+02  0.2431896E+00 -0.1381510E+01 -0.4575802E-01  0.2388459E+00
 -0.4900000E+02 -0.3700000E+02  0.2487015E+00 -0.1443119E+01 -0.3166740E-01  0.2466772E+00
 -0.4900000E+02 -0.3600000E+02  0.2543688E+00 -0.1503573E+01 -0.1708658E-01  0.2537943E+00
 -0.4900000E+02 -0.3500000E+02  0.2601959E+00 -0.1562497E+01 -0.2159435E-02  0.2601869E+00
 -0.4900000E+02 -0.3400000E+02  0.2660937E+00 -0.1620704E+01  0.1327458E-01  0.2657624E+00
 -0.4900000E+02 -0.3300000E+02  0.2721126E+00 -0.1677759E+01  0.2905036E-01  0.2705575E+00
 -0.4900000E+02 -0.3200000E+02  0.2782696E+00 -0.1733477E+01  0.4506965E-01  0.2745955E+00
 -0.4900000E+02 -0.3100000E+02  0.2845869E+00 -0.1787667E+01  0.6123590E-01  0.2779206E+00
 -0.4900000E+02 -0.3000000E+02  0.2909868E+00 -0.1840701E+01  0.7758858E-01  0.2804520E+00
 -0.4900000E+02 -0.2900000E+02  0.2974438E+00 -0.1892679E+01  0.9409738E-01  0.2821675E+00
 -0.4900000E+02 -0.2800000E+02  0.3039801E+00 -0.1943296E+01  0.1106320E+00  0.2831333E+00
 -0.4900000E+02 -0.2700000E+02  0.3106354E+00 -0.1992440E+01  0.1271309E+00  0.2834292E+00
 -0.4900000E+02 -0.2600000E+02  0.3174147E+00 -0.2040040E+01  0.1435386E+00  0.2831056E+00
 -0.4900000E+02 -0.2500000E+02  0.3242192E+00 -0.2086479E+01  0.1598820E+00  0.2820564E+00
 -0.4900000E+02 -0.2400000E+02  0.3310487E+00 -0.2131595E+01  0.1760725E+00  0.2803422E+00
 -0.4900000E+02 -0.2300000E+02  0.3379463E+00 -0.2175137E+01  0.1920277E+00  0.2780882E+00
 -0.4900000E+02 -0.2200000E+02  0.3449145E+00 -0.2217030E+01  0.2077018E+00  0.2753652E+00
 -0.4900000E+02 -0.2100000E+02  0.3519527E+00 -0.2257187E+01  0.2230499E+00  0.2722488E+00
 -0.4900000E+02 -0.2000000E+02  0.3589706E+00 -0.2295877E+01  0.2380679E+00  0.2686699E+00
 -0.4900000E+02 -0.1900000E+02  0.3659447E+00 -0.2333132E+01  0.2527260E+00  0.2646603E+00
 -0.4900000E+02 -0.1800000E+02  0.3728805E+00 -0.2368743E+01  0.2669541E+00  0.2603371E+00
 -0.4900000E+02 -0.1700000E+02  0.3797948E+00 -0.2402598E+01  0.2807238E+00  0.2558091E+00
 -0.4900000E+02 -0.1600000E+02  0.3866789E+00 -0.2434684E+01  0.2940204E+00  0.2511426E+00
 -0.4900000E+02 -0.1500000E+02  0.3935244E+00 -0.2464943E+01  0.3068212E+00  0.2464189E+00
 -0.4900000E+02 -0.1400000E+02  0.4001867E+00 -0.2493725E+01  0.3190978E+00  0.2415079E+00
 -0.4900000E+02 -0.1300000E+02  0.4067137E+00 -0.2520857E+01  0.3308417E+00  0.2365583E+00
 -0.4900000E+02 -0.1200000E+02  0.4130794E+00 -0.2546221E+01  0.3420050E+00  0.2316619E+00
 -0.4900000E+02 -0.1100000E+02  0.4193124E+00 -0.2569721E+01  0.3525953E+00  0.2269350E+00
 -0.4900000E+02 -0.1000000E+02  0.4253784E+00 -0.2591385E+01  0.3625993E+00  0.2224151E+00
 -0.4900000E+02 -0.9000000E+01  0.4312814E+00 -0.2611176E+01  0.3720218E+00  0.2181821E+00
 -0.4900000E+02 -0.8000000E+01  0.4369586E+00 -0.2629176E+01  0.3808366E+00  0.2142342E+00
 -0.4900000E+02 -0.7000000E+01  0.4422948E+00 -0.2645562E+01  0.3889888E+00  0.2105051E+00
 -0.4900000E+02 -0.6000000E+01  0.4473802E+00 -0.2660116E+01  0.3965184E+00  0.2071767E+00
 -0.4900000E+02 -0.5000000E+01  0.4521766E+00 -0.2672856E+01  0.4034047E+00  0.2042751E+00
 -0.4900000E+02 -0.4000000E+01  0.4566899E+00 -0.2683657E+01  0.4096358E+00  0.2019015E+00
 -0.4900000E+02 -0.3000000E+01  0.4609100E+00 -0.2692536E+01  0.4152140E+00  0.2000884E+00
 -0.4900000E+02 -0.2000000E+01  0.4648175E+00 -0.2699528E+01  0.4201348E+00  0.1988518E+00
 -0.4900000E+02 -0.1000000E+01  0.4684073E+00 -0.2704597E+01  0.4243897E+00  0.1982393E+00
 -0.4900000E+02  0.0000000E+00  0.4716430E+00 -0.2707781E+01  0.4279547E+00  0.1982470E+00
 -0.4900000E+02  0.1000000E+01  0.4744622E+00 -0.2709157E+01  0.4307870E+00  0.1988391E+00
 -0.4900000E+02  0.2000000E+01  0.4768240E+00 -0.2708757E+01  0.4328512E+00  0.2000024E+00
 -0.4900000E+02  0.3000000E+01  0.4787970E+00 -0.2706501E+01  0.4341882E+00  0.2018097E+00
 -0.4900000E+02  0.4000000E+01  0.4803854E+00 -0.2702408E+01  0.4347962E+00  0.2042606E+00
 -0.4900000E+02  0.5000000E+01  0.4815886E+00 -0.2696481E+01  0.4346638E+00  0.2073523E+00
 -0.4900000E+02  0.6000000E+01  0.4823884E+00 -0.2688734E+01  0.4337636E+00  0.2110634E+00
 -0.4900000E+02  0.7000000E+01  0.4828038E+00 -0.2679118E+01  0.4320858E+00  0.2154098E+00
 -0.4900000E+02  0.8000000E+01  0.4828610E+00 -0.2667630E+01  0.4296337E+00  0.2203853E+00
 -0.4900000E+02  0.9000000E+01  0.4825191E+00 -0.2654302E+01  0.4263561E+00  0.2259317E+00
 -0.4900000E+02  0.1000000E+02  0.4818141E+00 -0.2639133E+01  0.4222622E+00  0.2320333E+00
 -0.4900000E+02  0.1100000E+02  0.4807482E+00 -0.2622114E+01  0.4173271E+00  0.2386565E+00
 -0.4900000E+02  0.1200000E+02  0.4793327E+00 -0.2603312E+01  0.4115510E+00  0.2457347E+00
 -0.4900000E+02  0.1300000E+02  0.4775753E+00 -0.2582721E+01  0.4049139E+00  0.2532249E+00
 -0.4900000E+02  0.1400000E+02  0.4754828E+00 -0.2560410E+01  0.3974152E+00  0.2610461E+00
 -0.4900000E+02  0.1500000E+02  0.4730544E+00 -0.2536336E+01  0.3890191E+00  0.2691553E+00
 -0.4900000E+02  0.1600000E+02  0.4702945E+00 -0.2510556E+01  0.3797233E+00  0.2774655E+00
 -0.4900000E+02  0.1700000E+02  0.4672481E+00 -0.2483059E+01  0.3695422E+00  0.2859360E+00
 -0.4900000E+02  0.1800000E+02  0.4639151E+00 -0.2453863E+01  0.3584620E+00  0.2944863E+00
 -0.4900000E+02  0.1900000E+02  0.4603181E+00 -0.2423007E+01  0.3464988E+00  0.3030368E+00
 -0.4900000E+02  0.2000000E+02  0.4564734E+00 -0.2390558E+01  0.3336746E+00  0.3114952E+00
 -0.4900000E+02  0.2100000E+02  0.4523776E+00 -0.2356513E+01  0.3199812E+00  0.3197773E+00
 -0.4900000E+02  0.2200000E+02  0.4480513E+00 -0.2320882E+01  0.3054374E+00  0.3278079E+00
 -0.4900000E+02  0.2300000E+02  0.4435330E+00 -0.2283666E+01  0.2900739E+00  0.3355275E+00
 -0.4900000E+02  0.2400000E+02  0.4388374E+00 -0.2244916E+01  0.2739265E+00  0.3428448E+00
 -0.4900000E+02  0.2500000E+02  0.4339884E+00 -0.2204679E+01  0.2570416E+00  0.3496792E+00
 -0.4900000E+02  0.2600000E+02  0.4289801E+00 -0.2162948E+01  0.2394341E+00  0.3559427E+00
 -0.4900000E+02  0.2700000E+02  0.4238636E+00 -0.2119758E+01  0.2211726E+00  0.3615841E+00
 -0.4900000E+02  0.2800000E+02  0.4186749E+00 -0.2075050E+01  0.2022846E+00  0.3665646E+00
 -0.4900000E+02  0.2900000E+02  0.4134349E+00 -0.2028923E+01  0.1828491E+00  0.3708027E+00
 -0.4900000E+02  0.3000000E+02  0.4080977E+00 -0.1981392E+01  0.1628945E+00  0.3741779E+00
 -0.4900000E+02  0.3100000E+02  0.4027461E+00 -0.1932601E+01  0.1425571E+00  0.3766721E+00
 -0.4900000E+02  0.3200000E+02  0.3973327E+00 -0.1882494E+01  0.1218520E+00  0.3781869E+00
 -0.4900000E+02  0.3300000E+02  0.3918704E+00 -0.1831063E+01  0.1008431E+00  0.3786728E+00
 -0.4900000E+02  0.3400000E+02  0.3863584E+00 -0.1778366E+01  0.7962156E-01  0.3780650E+00
 -0.4900000E+02  0.3500000E+02  0.3808129E+00 -0.1724491E+01  0.5829863E-01  0.3763240E+00
 -0.4900000E+02  0.3600000E+02  0.3752291E+00 -0.1669556E+01  0.3699714E-01  0.3734007E+00
 -0.4900000E+02  0.3700000E+02  0.3696227E+00 -0.1613353E+01  0.1572521E-01  0.3692881E+00
 -0.4900000E+02  0.3800000E+02  0.3641120E+00 -0.1555959E+01 -0.5402425E-02  0.3640720E+00
 -0.4900000E+02  0.3900000E+02  0.3586234E+00 -0.1497397E+01 -0.2629921E-01  0.3576578E+00
 -0.4900000E+02  0.4000000E+02  0.3531981E+00 -0.1437871E+01 -0.4681101E-01  0.3500824E+00
 -0.4900000E+02  0.4100000E+02  0.3477910E+00 -0.1377295E+01 -0.6687875E-01  0.3413001E+00
 -0.4900000E+02  0.4200000E+02  0.3424020E+00 -0.1315609E+01 -0.8643145E-01  0.3313137E+00
 -0.4900000E+02  0.4300000E+02  0.3370581E+00 -0.1252966E+01 -0.1053329E+00  0.3201768E+00
 -0.4900000E+02  0.4400000E+02  0.3317019E+00 -0.1189429E+01 -0.1234562E+00  0.3078713E+00
 -0.4900000E+02  0.4500000E+02  0.3264521E+00 -0.1124982E+01 -0.1407636E+00  0.2945447E+00
 -0.4900000E+02  0.4600000E+02  0.3213118E+00 -0.1059518E+01 -0.1572154E+00  0.2802224E+00
 -0.4900000E+02  0.4700000E+02  0.3162394E+00 -0.9930869E+00 -0.1727004E+00  0.2649187E+00
 -0.4900000E+02  0.4800000E+02  0.3112311E+00 -0.9258720E+00 -0.1870928E+00  0.2487188E+00
 -0.4900000E+02  0.4900000E+02  0.3062698E+00 -0.8579443E+00 -0.2002986E+00  0.2316930E+00
 -0.4900000E+02  0.5000000E+02  0.3013187E+00 -0.7890850E+00 -0.2122775E+00  0.2138486E+00
 -0.4800000E+02 -0.5000000E+02  0.1841355E+00 -0.6426629E+00 -0.1474010E+00  0.1103578E+00
 -0.4800000E+02 -0.4900000E+02  0.1882495E+00 -0.7152115E+00 -0.1421198E+00  0.1234497E+00
 -0.4800000E+02 -0.4800000E+02  0.1924391E+00 -0.7870969E+00 -0.1358436E+00  0.1363059E+00
 -0.4800000E+02 -0.4700000E+02  0.1967260E+00 -0.8588319E+00 -0.1285255E+00  0.1489373E+00
 -0.4800000E+02 -0.4600000E+02  0.2011572E+00 -0.9297205E+00 -0.1203037E+00  0.1612180E+00
 -0.4800000E+02 -0.4500000E+02  0.2057105E+00 -0.9994521E+00 -0.1112407E+00  0.1730385E+00
 -0.4800000E+02 -0.4400000E+02  0.2103895E+00 -0.1068187E+01 -0.1013475E+00  0.1843703E+00
 -0.4800000E+02 -0.4300000E+02  0.2151882E+00 -0.1136447E+01 -0.9055549E-01  0.1952067E+00
 -0.4800000E+02 -0.4200000E+02  0.2201246E+00 -0.1203779E+01 -0.7898789E-01  0.2054647E+00
 -0.4800000E+02 -0.4100000E+02  0.2252351E+00 -0.1269810E+01 -0.6677370E-01  0.2151096E+00
 -0.4800000E+02 -0.4000000E+02  0.2304715E+00 -0.1334750E+01 -0.5389806E-01  0.2240806E+00
 -0.4800000E+02 -0.3900000E+02  0.2357691E+00 -0.1399228E+01 -0.4025227E-01  0.2323076E+00
 -0.4800000E+02 -0.3800000E+02  0.2412090E+00 -0.1462840E+01 -0.2598956E-01  0.2398048E+00
 -0.4800000E+02 -0.3700000E+02  0.2468183E+00 -0.1525072E+01 -0.1128174E-01  0.2465604E+00
 -0.4800000E+02 -0.3600000E+02  0.2526225E+00 -0.1585699E+01  0.3764597E-02  0.2525944E+00
 -0.4800000E+02 -0.3500000E+02  0.2584831E+00 -0.1645740E+01  0.1935346E-01  0.2577575E+00
 -0.4800000E+02 -0.3400000E+02  0.2644712E+00 -0.1704708E+01  0.3531014E-01  0.2621035E+00
 -0.4800000E+02 -0.3300000E+02  0.2706136E+00 -0.1762374E+01  0.5152694E-01  0.2656627E+00
 -0.4800000E+02 -0.3200000E+02  0.2769200E+00 -0.1818583E+01  0.6791721E-01  0.2684622E+00
 -0.4800000E+02 -0.3100000E+02  0.2833059E+00 -0.1873649E+01  0.8449430E-01  0.2704125E+00
 -0.4800000E+02 -0.3000000E+02  0.2897653E+00 -0.1927723E+01  0.1012430E+00  0.2715028E+00
 -0.4800000E+02 -0.2900000E+02  0.2963449E+00 -0.1980536E+01  0.1180552E+00  0.2718148E+00
 -0.4800000E+02 -0.2800000E+02  0.3030536E+00 -0.2031863E+01  0.1348298E+00  0.2714082E+00
 -0.4800000E+02 -0.2700000E+02  0.3099234E+00 -0.2081480E+01  0.1514826E+00  0.2703804E+00
 -0.4800000E+02 -0.2600000E+02  0.3168326E+00 -0.2129984E+01  0.1680789E+00  0.2685747E+00
 -0.4800000E+02 -0.2500000E+02  0.3237987E+00 -0.2177088E+01  0.1845082E+00  0.2660870E+00
 -0.4800000E+02 -0.2400000E+02  0.3308381E+00 -0.2222656E+01  0.2007083E+00  0.2630020E+00
 -0.4800000E+02 -0.2300000E+02  0.3379667E+00 -0.2266578E+01  0.2166319E+00  0.2594073E+00
 -0.4800000E+02 -0.2200000E+02  0.3451860E+00 -0.2308764E+01  0.2322363E+00  0.2553815E+00
 -0.4800000E+02 -0.2100000E+02  0.3523611E+00 -0.2349645E+01  0.2475199E+00  0.2507834E+00
 -0.4800000E+02 -0.2000000E+02  0.3595247E+00 -0.2389009E+01  0.2624261E+00  0.2457449E+00
 -0.4800000E+02 -0.1900000E+02  0.3666885E+00 -0.2426687E+01  0.2769067E+00  0.2403812E+00
 -0.4800000E+02 -0.1800000E+02  0.3738431E+00 -0.2462658E+01  0.2909405E+00  0.2347601E+00
 -0.4800000E+02 -0.1700000E+02  0.3809969E+00 -0.2496822E+01  0.3045070E+00  0.2289850E+00
 -0.4800000E+02 -0.1600000E+02  0.3880810E+00 -0.2529360E+01  0.3175926E+00  0.2230288E+00
 -0.4800000E+02 -0.1500000E+02  0.3950086E+00 -0.2560402E+01  0.3301519E+00  0.2168675E+00
 -0.4800000E+02 -0.1400000E+02  0.4018251E+00 -0.2589715E+01  0.3421708E+00  0.2106718E+00
 -0.4800000E+02 -0.1300000E+02  0.4085391E+00 -0.2617191E+01  0.3536411E+00  0.2045535E+00
 -0.4800000E+02 -0.1200000E+02  0.4151177E+00 -0.2642851E+01  0.3645502E+00  0.1985595E+00
 -0.4800000E+02 -0.1100000E+02  0.4215715E+00 -0.2666627E+01  0.3749071E+00  0.1927880E+00
 -0.4800000E+02 -0.1000000E+02  0.4278467E+00 -0.2688581E+01  0.3846912E+00  0.1872578E+00
 -0.4800000E+02 -0.9000000E+01  0.4338126E+00 -0.2708930E+01  0.3938380E+00  0.1818930E+00
 -0.4800000E+02 -0.8000000E+01  0.4395523E+00 -0.2727465E+01  0.4023960E+00  0.1768719E+00
 -0.4800000E+02 -0.7000000E+01  0.4450218E+00 -0.2744163E+01  0.4103363E+00  0.1722455E+00
 -0.4800000E+02 -0.6000000E+01  0.4502522E+00 -0.2758910E+01  0.4176838E+00  0.1681287E+00
 -0.4800000E+02 -0.5000000E+01  0.4551997E+00 -0.2771744E+01  0.4244201E+00  0.1645431E+00
 -0.4800000E+02 -0.4000000E+01  0.4598666E+00 -0.2782691E+01  0.4305653E+00  0.1615265E+00
 -0.4800000E+02 -0.3000000E+01  0.4642454E+00 -0.2791707E+01  0.4361177E+00  0.1591387E+00
 -0.4800000E+02 -0.2000000E+01  0.4682544E+00 -0.2798896E+01  0.4410264E+00  0.1573465E+00
 -0.4800000E+02 -0.1000000E+01  0.4718221E+00 -0.2804327E+01  0.4452410E+00  0.1561299E+00
 -0.4800000E+02  0.0000000E+00  0.4750109E+00 -0.2807863E+01  0.4488032E+00  0.1555990E+00
 -0.4800000E+02  0.1000000E+01  0.4778340E+00 -0.2809494E+01  0.4517253E+00  0.1557871E+00
 -0.4800000E+02  0.2000000E+01  0.4802555E+00 -0.2809252E+01  0.4539766E+00  0.1566864E+00
 -0.4800000E+02  0.3000000E+01  0.4822846E+00 -0.2807050E+01  0.4555469E+00  0.1583522E+00
 -0.4800000E+02  0.4000000E+01  0.4839342E+00 -0.2802901E+01  0.4564419E+00  0.1607888E+00
 -0.4800000E+02  0.5000000E+01  0.4852015E+00 -0.2796803E+01  0.4566456E+00  0.1639977E+00
 -0.4800000E+02  0.6000000E+01  0.4860630E+00 -0.2788776E+01  0.4561230E+00  0.1679554E+00
 -0.4800000E+02  0.7000000E+01  0.4865378E+00 -0.2778877E+01  0.4548820E+00  0.1726308E+00
 -0.4800000E+02  0.8000000E+01  0.4866261E+00 -0.2767074E+01  0.4528951E+00  0.1780198E+00
 -0.4800000E+02  0.9000000E+01  0.4863189E+00 -0.2753432E+01  0.4501400E+00  0.1840651E+00
 -0.4800000E+02  0.1000000E+02  0.4856318E+00 -0.2737909E+01  0.4465969E+00  0.1907603E+00
 -0.4800000E+02  0.1100000E+02  0.4845298E+00 -0.2720577E+01  0.4422179E+00  0.1980213E+00
 -0.4800000E+02  0.1200000E+02  0.4830419E+00 -0.2701421E+01  0.4369976E+00  0.2058217E+00
 -0.4800000E+02  0.1300000E+02  0.4811800E+00 -0.2680428E+01  0.4309134E+00  0.2141212E+00
 -0.4800000E+02  0.1400000E+02  0.4789669E+00 -0.2657672E+01  0.4239708E+00  0.2228409E+00
 -0.4800000E+02  0.1500000E+02  0.4764188E+00 -0.2633144E+01  0.4161522E+00  0.2319314E+00
 -0.4800000E+02  0.1600000E+02  0.4735405E+00 -0.2606871E+01  0.4074391E+00  0.2413172E+00
 -0.4800000E+02  0.1700000E+02  0.4703564E+00 -0.2578910E+01  0.3978401E+00  0.2509152E+00
 -0.4800000E+02  0.1800000E+02  0.4668751E+00 -0.2549207E+01  0.3873247E+00  0.2606760E+00
 -0.4800000E+02  0.1900000E+02  0.4631350E+00 -0.2517786E+01  0.3759084E+00  0.2705307E+00
 -0.4800000E+02  0.2000000E+02  0.4591680E+00 -0.2484716E+01  0.3636168E+00  0.2803892E+00
 -0.4800000E+02  0.2100000E+02  0.4549780E+00 -0.2450023E+01  0.3504451E+00  0.2901607E+00
 -0.4800000E+02  0.2200000E+02  0.4505565E+00 -0.2413744E+01  0.3363890E+00  0.2997393E+00
 -0.4800000E+02  0.2300000E+02  0.4459216E+00 -0.2375929E+01  0.3214749E+00  0.3090307E+00
 -0.4800000E+02  0.2400000E+02  0.4411006E+00 -0.2336518E+01  0.3057079E+00  0.3179817E+00
 -0.4800000E+02  0.2500000E+02  0.4361123E+00 -0.2295570E+01  0.2891275E+00  0.3264954E+00
 -0.4800000E+02  0.2600000E+02  0.4309610E+00 -0.2253129E+01  0.2717663E+00  0.3344704E+00
 -0.4800000E+02  0.2700000E+02  0.4256729E+00 -0.2209268E+01  0.2536878E+00  0.3418186E+00
 -0.4800000E+02  0.2800000E+02  0.4202536E+00 -0.2164023E+01  0.2349383E+00  0.3484496E+00
 -0.4800000E+02  0.2900000E+02  0.4147331E+00 -0.2117342E+01  0.2155529E+00  0.3543169E+00
 -0.4800000E+02  0.3000000E+02  0.4091243E+00 -0.2069217E+01  0.1955774E+00  0.3593496E+00
 -0.4800000E+02  0.3100000E+02  0.4034995E+00 -0.2019711E+01  0.1751141E+00  0.3635201E+00
 -0.4800000E+02  0.3200000E+02  0.3978776E+00 -0.1968937E+01  0.1542594E+00  0.3667569E+00
 -0.4800000E+02  0.3300000E+02  0.3921947E+00 -0.1916819E+01  0.1330163E+00  0.3689490E+00
 -0.4800000E+02  0.3400000E+02  0.3865497E+00 -0.1863407E+01  0.1115014E+00  0.3701190E+00
 -0.4800000E+02  0.3500000E+02  0.3808897E+00 -0.1808751E+01  0.8978141E-01  0.3701571E+00
 -0.4800000E+02  0.3600000E+02  0.3752176E+00 -0.1752946E+01  0.6796859E-01  0.3690102E+00
 -0.4800000E+02  0.3700000E+02  0.3695124E+00 -0.1696066E+01  0.4616788E-01  0.3666169E+00
 -0.4800000E+02  0.3800000E+02  0.3638121E+00 -0.1638008E+01  0.2443407E-01  0.3629906E+00
 -0.4800000E+02  0.3900000E+02  0.3580975E+00 -0.1578782E+01  0.2859797E-02  0.3580861E+00
 -0.4800000E+02  0.4000000E+02  0.3524981E+00 -0.1518491E+01 -0.1842907E-01  0.3520160E+00
 -0.4800000E+02  0.4100000E+02  0.3469442E+00 -0.1457177E+01 -0.3933484E-01  0.3447072E+00
 -0.4800000E+02  0.4200000E+02  0.3414594E+00 -0.1394823E+01 -0.5977824E-01  0.3361861E+00
 -0.4800000E+02  0.4300000E+02  0.3360324E+00 -0.1331418E+01 -0.7967277E-01  0.3264506E+00
 -0.4800000E+02  0.4400000E+02  0.3306403E+00 -0.1267034E+01 -0.9889866E-01  0.3155029E+00
 -0.4800000E+02  0.4500000E+02  0.3252861E+00 -0.1201854E+01 -0.1173077E+00  0.3033974E+00
 -0.4800000E+02  0.4600000E+02  0.3199607E+00 -0.1135796E+01 -0.1348350E+00  0.2901627E+00
 -0.4800000E+02  0.4700000E+02  0.3147538E+00 -0.1068663E+01 -0.1514899E+00  0.2758999E+00
 -0.4800000E+02  0.4800000E+02  0.3096679E+00 -0.1000680E+01 -0.1671370E+00  0.2606903E+00
 -0.4800000E+02  0.4900000E+02  0.3046600E+00 -0.9319649E+00 -0.1816559E+00  0.2445790E+00
 -0.4800000E+02  0.5000000E+02  0.2996929E+00 -0.8624508E+00 -0.1949737E+00  0.2275986E+00
 -0.4700000E+02 -0.5000000E+02  0.1817658E+00 -0.7141849E+00 -0.1373472E+00  0.1190569E+00
 -0.4700000E+02 -0.4900000E+02  0.1858654E+00 -0.7872269E+00 -0.1311861E+00  0.1316668E+00
 -0.4700000E+02 -0.4800000E+02  0.1900359E+00 -0.8604444E+00 -0.1239226E+00  0.1440724E+00
 -0.4700000E+02 -0.4700000E+02  0.1943269E+00 -0.9330418E+00 -0.1157008E+00  0.1561290E+00
 -0.4700000E+02 -0.4600000E+02  0.1987806E+00 -0.1004414E+01 -0.1066622E+00  0.1677406E+00
 -0.4700000E+02 -0.4500000E+02  0.2033782E+00 -0.1074416E+01 -0.9685795E-01  0.1788329E+00
 -0.4700000E+02 -0.4400000E+02  0.2080645E+00 -0.1144269E+01 -0.8607864E-01  0.1894236E+00
 -0.4700000E+02 -0.4300000E+02  0.2129060E+00 -0.1213285E+01 -0.7450512E-01  0.1994441E+00
 -0.4700000E+02 -0.4200000E+02  0.2179013E+00 -0.1281190E+01 -0.6222725E-01  0.2088271E+00
 -0.4700000E+02 -0.4100000E+02  0.2230411E+00 -0.1347693E+01 -0.4934950E-01  0.2175131E+00
 -0.4700000E+02 -0.4000000E+02  0.2282463E+00 -0.1414048E+01 -0.3563093E-01  0.2254480E+00
 -0.4700000E+02 -0.3900000E+02  0.2336063E+00 -0.1479368E+01 -0.2132838E-01  0.2326307E+00
 -0.4700000E+02 -0.3800000E+02  0.2391630E+00 -0.1543359E+01 -0.6561220E-02  0.2390730E+00
 -0.4700000E+02 -0.3700000E+02  0.2448860E+00 -0.1605850E+01  0.8582261E-02  0.2447355E+00
 -0.4700000E+02 -0.3600000E+02  0.2507038E+00 -0.1667651E+01  0.2424384E-01  0.2495289E+00
 -0.4700000E+02 -0.3500000E+02  0.2566359E+00 -0.1728593E+01  0.4032857E-01  0.2534474E+00
 -0.4700000E+02 -0.3400000E+02  0.2627261E+00 -0.1788267E+01  0.5668593E-01  0.2565379E+00
 -0.4700000E+02 -0.3300000E+02  0.2689803E+00 -0.1846498E+01  0.7322255E-01  0.2588221E+00
 -0.4700000E+02 -0.3200000E+02  0.2753538E+00 -0.1903674E+01  0.8997584E-01  0.2602385E+00
 -0.4700000E+02 -0.3100000E+02  0.2818079E+00 -0.1959839E+01  0.1068906E+00  0.2607491E+00
 -0.4700000E+02 -0.3000000E+02  0.2884167E+00 -0.2014618E+01  0.1238444E+00  0.2604741E+00
 -0.4700000E+02 -0.2900000E+02  0.2951877E+00 -0.2067862E+01  0.1407598E+00  0.2594657E+00
 -0.4700000E+02 -0.2800000E+02  0.3021090E+00 -0.2119469E+01  0.1575664E+00  0.2577647E+00
 -0.4700000E+02 -0.2700000E+02  0.3090766E+00 -0.2170041E+01  0.1743251E+00  0.2552237E+00
 -0.4700000E+02 -0.2600000E+02  0.3161201E+00 -0.2219243E+01  0.1909204E+00  0.2519549E+00