 VARIABLES="Time (s)"
"AddedMass    1" "IRF    1"
Zone t="DoF    1",I=   100,F=POINT
  0.0000000E+00  0.8922557E+09  0.7212059E+09
  0.1000000E+00  0.8922557E+09  0.7168498E+09
  0.2000000E+00  0.8922557E+09  0.7038429E+09
  0.3000000E+00  0.8922557E+09  0.6823672E+09
  0.4000000E+00  0.8922557E+09  0.6527234E+09
  0.5000000E+00  0.8922557E+09  0.6153254E+09
  0.6000000E+00  0.8922557E+09  0.5706936E+09
  0.7000000E+00  0.8922557E+09  0.5194462E+09
  0.8000000E+00  0.8922557E+09  0.4622894E+09
  0.9000000E+00  0.8922557E+09  0.4000059E+09
  0.1000000E+01  0.8922557E+09  0.3334425E+09
  0.1100000E+01  0.8922557E+09  0.2634960E+09
  0.1200000E+01  0.8922557E+09  0.1910994E+09
  0.1300000E+01  0.8922557E+09  0.1172074E+09
  0.1400000E+01  0.8922557E+09  0.4278156E+08
  0.1500000E+01  0.8922557E+09 -0.3122486E+08
  0.1600000E+01  0.8922557E+09 -0.1038804E+09
  0.1700000E+01  0.8922557E+09 -0.1742896E+09
  0.1800000E+01  0.8922557E+09 -0.2416055E+09
  0.1900000E+01  0.8922557E+09 -0.3050416E+09
  0.2000000E+01  0.8922557E+09 -0.3638823E+09
  0.2100000E+01  0.8922557E+09 -0.4174918E+09
  0.2200000E+01  0.8922557E+09 -0.4653216E+09
  0.2300000E+01  0.8922557E+09 -0.5069165E+09
  0.2400000E+01  0.8922557E+09 -0.5419187E+09
  0.2500000E+01  0.8922557E+09 -0.5700696E+09
  0.2600000E+01  0.8922557E+09 -0.5912112E+09
  0.2700000E+01  0.8922557E+09 -0.6052845E+09
  0.2800000E+01  0.8922557E+09 -0.6123269E+09
  0.2900000E+01  0.8922557E+09 -0.6124676E+09
  0.3000000E+01  0.8922557E+09 -0.6059226E+09
  0.3100000E+01  0.8922557E+09 -0.5929866E+09
  0.3200000E+01  0.8922557E+09 -0.5740262E+09
  0.3300000E+01  0.8922557E+09 -0.5494700E+09
  0.3400000E+01  0.8922557E+09 -0.5197995E+09
  0.3500000E+01  0.8922557E+09 -0.4855394E+09
  0.3600000E+01  0.8922557E+09 -0.4472462E+09
  0.3700000E+01  0.8922557E+09 -0.4054990E+09
  0.3800000E+01  0.8922557E+09 -0.3608888E+09
  0.3900000E+01  0.8922557E+09 -0.3140088E+09
  0.4000000E+01  0.8922557E+09 -0.2654455E+09
  0.4100000E+01  0.8922557E+09 -0.2157701E+09
  0.4200000E+01  0.8922557E+09 -0.1655303E+09
  0.4300000E+01  0.8922557E+09 -0.1152454E+09
  0.4400000E+01  0.8922557E+09 -0.6539886E+08
  0.4500000E+01  0.8922557E+09 -0.1643493E+08
  0.4600000E+01  0.8922557E+09  0.3124447E+08
  0.4700000E+01  0.8922557E+09  0.7728221E+08
  0.4800000E+01  0.8922557E+09  0.1213659E+09
  0.4900000E+01  0.8922557E+09  0.1632288E+09
  0.5000000E+01  0.8922557E+09  0.2026480E+09
  0.5100000E+01  0.8922557E+09  0.2394421E+09
  0.5200000E+01  0.8922557E+09  0.2734683E+09
  0.5300000E+01  0.8922557E+09  0.3046185E+09
  0.5400000E+01  0.8922557E+09  0.3328157E+09
  0.5500000E+01  0.8922557E+09  0.3580094E+09
  0.5600000E+01  0.8922557E+09  0.3801701E+09
  0.5700000E+01  0.8922557E+09  0.3992856E+09
  0.5800000E+01  0.8922557E+09  0.4153554E+09
  0.5900000E+01  0.8922557E+09  0.4283875E+09
  0.6000000E+01  0.8922557E+09  0.4383936E+09
  0.6100000E+01  0.8922557E+09  0.4453863E+09
  0.6200000E+01  0.8922557E+09  0.4493761E+09
  0.6300000E+01  0.8922557E+09  0.4503697E+09
  0.6400000E+01  0.8922557E+09  0.4483690E+09
  0.6500000E+01  0.8922557E+09  0.4433704E+09
  0.6600000E+01  0.8922557E+09  0.4353656E+09
  0.6700000E+01  0.8922557E+09  0.4243432E+09
  0.6800000E+01  0.8922557E+09  0.4102908E+09
  0.6900000E+01  0.8922557E+09  0.3931972E+09
  0.7000000E+01  0.8922557E+09  0.3730572E+09
  0.7100000E+01  0.8922557E+09  0.3498743E+09
  0.7200000E+01  0.8922557E+09  0.3236662E+09
  0.7300000E+01  0.8922557E+09  0.2944691E+09
  0.7400000E+01  0.8922557E+09  0.2623417E+09
  0.7500000E+01  0.8922557E+09  0.2273710E+09
  0.7600000E+01  0.8922557E+09  0.1896764E+09
  0.7700000E+01  0.8922557E+09  0.1494129E+09
  0.7800000E+01  0.8922557E+09  0.1067761E+09
  0.7900000E+01  0.8922557E+09  0.6200337E+08
  0.8000000E+01  0.8922557E+09  0.1537661E+08
  0.8100000E+01  0.8922557E+09 -0.3277711E+08
  0.8200000E+01  0.8922557E+09 -0.8208465E+08
  0.8300000E+01  0.8922557E+09 -0.1321305E+09
  0.8400001E+01  0.8922557E+09 -0.1824562E+09
  0.8500000E+01  0.8922557E+09 -0.2325653E+09
  0.8600000E+01  0.8922557E+09 -0.2819294E+09
  0.8700000E+01  0.8922557E+09 -0.3299909E+09
  0.8800000E+01  0.8922557E+09 -0.3761738E+09
  0.8900001E+01  0.8922557E+09 -0.4198876E+09
  0.9000000E+01  0.8922557E+09 -0.4605386E+09
  0.9100000E+01  0.8922557E+09 -0.4975394E+09
  0.9200000E+01  0.8922557E+09 -0.5303165E+09
  0.9300000E+01  0.8922557E+09 -0.5583239E+09
  0.9400001E+01  0.8922557E+09 -0.5810495E+09
  0.9500000E+01  0.8922557E+09 -0.5980289E+09
  0.9600000E+01  0.8922557E+09 -0.6088532E+09
  0.9700000E+01  0.8922557E+09 -0.6131789E+09
  0.9800000E+01  0.8922557E+09 -0.6107371E+09
  0.9900001E+01  0.8922557E+09 -0.6013400E+09
