VARIABLES="w (rad/s)"
"A   1   1" "B   1   1"
Zone t="Motion of body    1 in DoF   1",I=     3,F=POINT
  0.5000000E+00  0.1893292E+10  0.5724477E+08
  0.1000000E+01  0.7231106E+09  0.1840373E+10
  0.1500000E+01  0.2012713E+09  0.7934791E+09
